 Entering Gaussian System, Link 0=g09
 Input=m1025.com
 Output=m1025.log
 Initial command:
 /home/student/g09/l1.exe /home/student/singh/4/a/Gau-30921.inp -scrdir=/home/student/singh/4/a/
 Entering Link 1 = /home/student/g09/l1.exe PID=     30925.
  
 Copyright (c) 1988,1990,1992,1993,1995,1998,2003,2009,2011,
            Gaussian, Inc.  All Rights Reserved.
  
 This is part of the Gaussian(R) 09 program.  It is based on
 the Gaussian(R) 03 system (copyright 2003, Gaussian, Inc.),
 the Gaussian(R) 98 system (copyright 1998, Gaussian, Inc.),
 the Gaussian(R) 94 system (copyright 1995, Gaussian, Inc.),
 the Gaussian 92(TM) system (copyright 1992, Gaussian, Inc.),
 the Gaussian 90(TM) system (copyright 1990, Gaussian, Inc.),
 the Gaussian 88(TM) system (copyright 1988, Gaussian, Inc.),
 the Gaussian 86(TM) system (copyright 1986, Carnegie Mellon
 University), and the Gaussian 82(TM) system (copyright 1983,
 Carnegie Mellon University). Gaussian is a federally registered
 trademark of Gaussian, Inc.
  
 This software contains proprietary and confidential information,
 including trade secrets, belonging to Gaussian, Inc.
  
 This software is provided under written license and may be
 used, copied, transmitted, or stored only in accord with that
 written license.
  
 The following legend is applicable only to US Government
 contracts under FAR:
  
                    RESTRICTED RIGHTS LEGEND
  
 Use, reproduction and disclosure by the US Government is
 subject to restrictions as set forth in subparagraphs (a)
 and (c) of the Commercial Computer Software - Restricted
 Rights clause in FAR 52.227-19.
  
 Gaussian, Inc.
 340 Quinnipiac St., Bldg. 40, Wallingford CT 06492
  
  
 ---------------------------------------------------------------
 Warning -- This program may not be used in any manner that
 competes with the business of Gaussian, Inc. or will provide
 assistance to any competitor of Gaussian, Inc.  The licensee
 of this program is prohibited from giving any competitor of
 Gaussian, Inc. access to this program.  By using this program,
 the user acknowledges that Gaussian, Inc. is engaged in the
 business of creating and licensing software in the field of
 computational chemistry and represents and warrants to the
 licensee that it is not a competitor of Gaussian, Inc. and that
 it will not use this program in any manner prohibited above.
 ---------------------------------------------------------------
  

 Cite this work as:
 Gaussian 09, Revision C.01,
 M. J. Frisch, G. W. Trucks, H. B. Schlegel, G. E. Scuseria, 
 M. A. Robb, J. R. Cheeseman, G. Scalmani, V. Barone, B. Mennucci, 
 G. A. Petersson, H. Nakatsuji, M. Caricato, X. Li, H. P. Hratchian, 
 A. F. Izmaylov, J. Bloino, G. Zheng, J. L. Sonnenberg, M. Hada, 
 M. Ehara, K. Toyota, R. Fukuda, J. Hasegawa, M. Ishida, T. Nakajima, 
 Y. Honda, O. Kitao, H. Nakai, T. Vreven, J. A. Montgomery, Jr., 
 J. E. Peralta, F. Ogliaro, M. Bearpark, J. J. Heyd, E. Brothers, 
 K. N. Kudin, V. N. Staroverov, T. Keith, R. Kobayashi, J. Normand, 
 K. Raghavachari, A. Rendell, J. C. Burant, S. S. Iyengar, J. Tomasi, 
 M. Cossi, N. Rega, J. M. Millam, M. Klene, J. E. Knox, J. B. Cross, 
 V. Bakken, C. Adamo, J. Jaramillo, R. Gomperts, R. E. Stratmann, 
 O. Yazyev, A. J. Austin, R. Cammi, C. Pomelli, J. W. Ochterski, 
 R. L. Martin, K. Morokuma, V. G. Zakrzewski, G. A. Voth, 
 P. Salvador, J. J. Dannenberg, S. Dapprich, A. D. Daniels, 
 O. Farkas, J. B. Foresman, J. V. Ortiz, J. Cioslowski, 
 and D. J. Fox, Gaussian, Inc., Wallingford CT, 2010.
 
 ******************************************
 Gaussian 09:  EM64L-G09RevC.01 23-Sep-2011
                 4-Mar-2021 
 ******************************************
 --------------------------
 # mp2/6-31g** opt=z-matrix
 --------------------------
 1/10=7,18=40,38=1/1,3;
 2/12=2,17=6,18=5,29=3,40=1/2;
 3/5=1,6=6,7=101,11=9,16=1,25=1,30=1,71=1/1,2,3;
 4//1;
 5/5=2,38=5/2;
 8/6=4,10=2/1;
 9/15=2,16=-3/6;
 10/5=1/2;
 6/7=2,8=2,9=2,10=2/1;
 7/12=2,29=1/1,2,3,16;
 1/10=7,18=40/3(2);
 2/29=3/2;
 99//99;
 2/29=3/2;
 3/5=1,6=6,7=101,11=9,16=1,25=1,30=1,71=1/1,2,3;
 4/5=5,16=3/1;
 5/5=2,38=5/2;
 8/6=4,10=2/1;
 9/15=2,16=-3/6;
 10/5=1/2;
 7/12=2/1,2,3,16;
 1/18=40/3(-8);
 2/29=3/2;
 6/7=2,8=2,9=2,10=2/1;
 99//99;
 --
 si
 --
 Charge =  0 Multiplicity = 1
 Symbolic Z-Matrix:
 xx
 n                    1    nxx2
 h                    2    hn3      1    hnxx3
 h                    2    hn4      1    hnxx4    3    dih4     0
 h                    2    hn5      1    hnxx5    4    dih5     0
       Variables:
  nxx2                  0.9604                   
  hn3                   1.008                    
  hn4                   1.008                    
  dih4                120.                       
  hn5                   1.008                    
  dih5                120.                       
       Constants:
  hnxx3               102.5                      
  hnxx4               102.5                      
  hnxx5               102.5                      
 

 GradGradGradGradGradGradGradGradGradGradGradGradGradGradGradGradGradGrad
 Berny optimization.
 Initialization pass.
                       ----------------------------
                       !    Initial Parameters    !
                       ! (Angstroms and Degrees)  !
 ----------------------                            ----------------------
 !      Name          Value   Derivative information (Atomic Units)     !
 ------------------------------------------------------------------------
 !      nxx2         0.9604   estimate D2E/DX2                          !
 !       hn3         1.008    estimate D2E/DX2                          !
 !       hn4         1.008    estimate D2E/DX2                          !
 !      dih4       120.0      estimate D2E/DX2                          !
 !       hn5         1.008    estimate D2E/DX2                          !
 !      dih5       120.0      estimate D2E/DX2                          !
 !      hnxx3      102.5      Frozen                                    !
 !      hnxx4      102.5      Frozen                                    !
 !      hnxx5      102.5      Frozen                                    !
 ------------------------------------------------------------------------
 Trust Radius=3.00D-01 FncErr=1.00D-07 GrdErr=1.00D-07
 Number of steps in this run=     20 maximum allowed number of steps=    100.
 GradGradGradGradGradGradGradGradGradGradGradGradGradGradGradGradGradGrad

 ---------------------------------------------------------------------------------------------------
                            Z-MATRIX (ANGSTROMS AND DEGREES)
   CD    Cent   Atom    N1       Length/X        N2       Alpha/Y        N3        Beta/Z          J
 ---------------------------------------------------------------------------------------------------
      1         X 
      2      1  N        1   0.960400(     1)
      3      2  H        2   1.008000(     2)      1  102.500(     5)
      4      3  H        2   1.008000(     3)      1  102.500(     6)      3  120.000(     8)      0
      5      4  H        2   1.008000(     4)      1  102.500(     7)      4  120.000(     9)      0
 ---------------------------------------------------------------------------------------------------
                         Z-Matrix orientation:                         
 ---------------------------------------------------------------------
 Center     Atomic      Atomic             Coordinates (Angstroms)
 Number     Number       Type             X           Y           Z
 ---------------------------------------------------------------------
      1         -1           0        0.000000    0.000000    0.000000
      2          7           0        0.000000    0.000000    0.960400
      3          1           0        0.984106    0.000000    1.178571
      4          1           0       -0.492053    0.852261    1.178571
      5          1           0       -0.492053   -0.852261    1.178571
 ---------------------------------------------------------------------
                    Distance matrix (angstroms):
                    1          2          3          4          5
     1  X    0.000000
     2  N    0.960400   0.000000
     3  H    1.535414   1.008000   0.000000
     4  H    1.535414   1.008000   1.704522   0.000000
     5  H    1.535414   1.008000   1.704522   1.704522   0.000000
 Stoichiometry    H3N
 Framework group  C3V[C3(N),3SGV(H)]
 Deg. of freedom     2
 Full point group                 C3V     NOp   6
 Largest Abelian subgroup         CS      NOp   2
 Largest concise Abelian subgroup CS      NOp   2
                         Standard orientation:                         
 ---------------------------------------------------------------------
 Center     Atomic      Atomic             Coordinates (Angstroms)
 Number     Number       Type             X           Y           Z
 ---------------------------------------------------------------------
      1          7           0        0.000000    0.000000    0.065451
      2          1           0        0.000000    0.984106   -0.152720
      3          1           0        0.852261   -0.492053   -0.152720
      4          1           0       -0.852261   -0.492053   -0.152720
 ---------------------------------------------------------------------
 Rotational constants (GHZ):    319.3702647    319.3702647    172.5944029
 Standard basis: 6-31G(d,p) (6D, 7F)
 There are    20 symmetry adapted basis functions of A'  symmetry.
 There are    10 symmetry adapted basis functions of A"  symmetry.
 Integral buffers will be    131072 words long.
 Raffenetti 1 integral format.
 Two-electron integral symmetry is turned on.
    30 basis functions,    49 primitive gaussians,    30 cartesian basis functions
     5 alpha electrons        5 beta electrons
       nuclear repulsion energy        11.9558897495 Hartrees.
 NAtoms=    4 NActive=    4 NUniq=    2 SFac= 4.00D+00 NAtFMM=   60 NAOKFM=F Big=F
 One-electron integrals computed using PRISM.
 NBasis=    30 RedAO= T  NBF=    20    10
 NBsUse=    30 1.00D-06 NBFU=    20    10
 Harris functional with IExCor=  205 diagonalized for initial guess.
 ExpMin= 1.61D-01 ExpMax= 4.17D+03 ExpMxC= 6.27D+02 IAcc=1 IRadAn=         1 AccDes= 0.00D+00
 HarFok:  IExCor=  205 AccDes= 0.00D+00 IRadAn=         1 IDoV= 1
 ScaDFX=  1.000000  1.000000  1.000000  1.000000
 FoFCou: FMM=F IPFlag=           0 FMFlag=      100000 FMFlg1=           0
         NFxFlg=           0 DoJE=T BraDBF=F KetDBF=T FulRan=T
         Omega=  0.000000  0.000000  1.000000  0.000000  0.000000 ICntrl=     500 IOpCl=  0
         NMat0=    1 NMatS0=    1 NMatT0=    0 NMatD0=    1 NMtDS0=    0 NMtDT0=    0
         I1Cent=           4 NGrid=           0.
 Petite list used in FoFCou.
 Initial guess orbital symmetries:
       Occupied  (A1) (A1) (E) (E) (A1)
       Virtual   (A1) (E) (E) (A1) (E) (E) (A1) (E) (E) (A1) (E)
                 (E) (A1) (A2) (E) (E) (E) (E) (A1) (E) (E) (A1)
                 (E) (E) (A1)
 The electronic state of the initial guess is 1-A1.
 Requested convergence on RMS density matrix=1.00D-08 within 128 cycles.
 Requested convergence on MAX density matrix=1.00D-06.
 Requested convergence on             energy=1.00D-06.
 No special actions if energy rises.
 Keep R1 ints in memory in canonical form, NReq=949711.
 SCF Done:  E(RHF) =  -56.1912057036     A.U. after   10 cycles
             Convg  =    0.3547D-08             -V/T =  2.0032
 ExpMin= 1.61D-01 ExpMax= 4.17D+03 ExpMxC= 6.27D+02 IAcc=3 IRadAn=         5 AccDes= 0.00D+00
 HarFok:  IExCor=  205 AccDes= 0.00D+00 IRadAn=         5 IDoV=-2
 ScaDFX=  1.000000  1.000000  1.000000  1.000000
 Range of M.O.s used for correlation:     2    30
 NBasis=    30 NAE=     5 NBE=     5 NFC=     1 NFV=     0
 NROrb=     29 NOA=     4 NOB=     4 NVA=    25 NVB=    25
 Fully direct method using O(ONN) memory.
 JobTyp=1 Pass  1:  I=   2 to   5 NPSUse=  1 ParTrn=F ParDer=F DoDerP=T.
 Spin components of T(2) and E(2):
     alpha-alpha T2 =       0.6113577263D-02 E2=     -0.2115599808D-01
     alpha-beta  T2 =       0.4083209651D-01 E2=     -0.1448883955D+00
     beta-beta   T2 =       0.6113577263D-02 E2=     -0.2115599808D-01
 ANorm=    0.1026186753D+01
 E2 =    -0.1872003917D+00 EUMP2 =    -0.56378406095260D+02
          IDoAtm=1111
          Differentiating once with respect to electric field.
                with respect to dipole field.
          Differentiating once with respect to nuclear coordinates.
          Keep R1 ints in memory in canonical form, NReq=928986.
          There are     1 degrees of freedom in the 1st order CPHF.  IDoFFX=0.
 LinEq1:  Iter=  0 NonCon=     1 RMS=3.68D-03 Max=1.81D-02
 AX will form     1 AO Fock derivatives at one time.
 LinEq1:  Iter=  1 NonCon=     1 RMS=1.09D-03 Max=8.15D-03
 LinEq1:  Iter=  2 NonCon=     1 RMS=2.24D-04 Max=1.11D-03
 LinEq1:  Iter=  3 NonCon=     1 RMS=3.00D-05 Max=1.71D-04
 LinEq1:  Iter=  4 NonCon=     1 RMS=3.78D-06 Max=2.77D-05
 LinEq1:  Iter=  5 NonCon=     1 RMS=4.13D-07 Max=1.74D-06
 LinEq1:  Iter=  6 NonCon=     1 RMS=4.79D-08 Max=2.40D-07
 LinEq1:  Iter=  7 NonCon=     1 RMS=4.98D-09 Max=3.89D-08
 LinEq1:  Iter=  8 NonCon=     1 RMS=3.52D-10 Max=1.80D-09
 LinEq1:  Iter=  9 NonCon=     0 RMS=2.15D-11 Max=1.09D-10
 Linear equations converged to 1.000D-10 1.000D-09 after     9 iterations.
 End of Minotr Frequency-dependent properties file   721 does not exist.
 End of Minotr Frequency-dependent properties file   722 does not exist.

 **********************************************************************

            Population analysis using the SCF density.

 **********************************************************************

 Orbital symmetries:
       Occupied  (A1) (A1) (E) (E) (A1)
       Virtual   (A1) (E) (E) (E) (E) (A1) (A1) (E) (E) (A1) (E)
                 (E) (A1) (A2) (E) (E) (E) (E) (A1) (E) (E) (A1)
                 (E) (E) (A1)
 The electronic state is 1-A1.
 Alpha  occ. eigenvalues --  -15.52711  -1.11803  -0.63027  -0.63027  -0.39313
 Alpha virt. eigenvalues --    0.22609   0.32680   0.32680   0.91862   0.91862
 Alpha virt. eigenvalues --    0.96919   1.06785   1.16841   1.16841   1.31228
 Alpha virt. eigenvalues --    1.73095   1.73095   2.30648   2.34999   2.44886
 Alpha virt. eigenvalues --    2.44886   2.86210   2.86210   2.86696   3.31096
 Alpha virt. eigenvalues --    3.31096   3.66071   3.82135   3.82135   4.38561
          Condensed to atoms (all electrons):
              1          2          3          4
     1  N    6.742905   0.364482   0.364482   0.364482
     2  H    0.364482   0.407878  -0.025572  -0.025572
     3  H    0.364482  -0.025572   0.407878  -0.025572
     4  H    0.364482  -0.025572  -0.025572   0.407878
 Mulliken atomic charges:
              1
     1  N   -0.836350
     2  H    0.278783
     3  H    0.278783
     4  H    0.278783
 Sum of Mulliken atomic charges =   0.00000
 Mulliken charges with hydrogens summed into heavy atoms:
              1
     1  N    0.000000
 Sum of Mulliken charges with hydrogens summed into heavy atoms =   0.00000
 Electronic spatial extent (au):  <R**2>=             25.9324
 Charge=              0.0000 electrons
 Dipole moment (field-independent basis, Debye):
    X=              0.0000    Y=              0.0000    Z=             -1.1926  Tot=              1.1926
 Quadrupole moment (field-independent basis, Debye-Ang):
   XX=             -5.6461   YY=             -5.6461   ZZ=             -9.1525
   XY=              0.0000   XZ=              0.0000   YZ=              0.0000
 Traceless Quadrupole moment (field-independent basis, Debye-Ang):
   XX=              1.1688   YY=              1.1688   ZZ=             -2.3376
   XY=              0.0000   XZ=              0.0000   YZ=              0.0000
 Octapole moment (field-independent basis, Debye-Ang**2):
  XXX=              0.0000  YYY=              1.1589  ZZZ=             -1.0547  XYY=              0.0000
  XXY=             -1.1589  XXZ=             -0.6171  XZZ=              0.0000  YZZ=              0.0000
  YYZ=             -0.6171  XYZ=              0.0000
 Hexadecapole moment (field-independent basis, Debye-Ang**3):
 XXXX=             -8.8312 YYYY=             -8.8312 ZZZZ=             -9.0681 XXXY=              0.0000
 XXXZ=              0.0000 YYYX=              0.0000 YYYZ=             -0.2399 ZZZX=              0.0000
 ZZZY=              0.0000 XXYY=             -2.9437 XXZZ=             -3.2783 YYZZ=             -3.2783
 XXYZ=              0.2399 YYXZ=              0.0000 ZZXY=              0.0000
 N-N= 1.195588974950D+01 E-N=-1.557066603128D+02  KE= 5.601007150074D+01
 Symmetry A'   KE= 5.343899538378D+01
 Symmetry A"   KE= 2.571076116963D+00
 Calling FoFJK, ICntrl=      2127 FMM=F ISym2X=1 I1Cent= 0 IOpClX= 0 NMat=1 NMatS=1 NMatT=0.
 ***** Axes restored to original set *****
 -------------------------------------------------------------------
 Center     Atomic                   Forces (Hartrees/Bohr)
 Number     Number              X              Y              Z
 -------------------------------------------------------------------
      1        7           0.000000000    0.000000000   -0.016436538
      2        1          -0.008450088    0.000000000    0.005478846
      3        1           0.004225044   -0.007317991    0.005478846
      4        1           0.004225044    0.007317991    0.005478846
 -------------------------------------------------------------------
 Cartesian Forces:  Max     0.016436538 RMS     0.006918725
 -----------------------------------------------------------------------------------------------
                       Internal Coordinate Forces (Hartree/Bohr or radian)
  Cent   Atom   N1       Length/X         N2         Alpha/Y        N3         Beta/Z          J
 -----------------------------------------------------------------------------------------------
         X 
      1  N        1   0.000000(     1)
      2  H        2  -0.007064(     2)      1   0.013673(     5)
      3  H        2  -0.007064(     3)      1   0.013673(     6)      3   0.000000(     8)     0
      4  H        2  -0.007064(     4)      1   0.013673(     7)      4   0.000000(     9)     0
 -----------------------------------------------------------------------------------------------
 Internal  Forces:  Max     0.013672797 RMS     0.008885283

 GradGradGradGradGradGradGradGradGradGradGradGradGradGradGradGradGradGrad
 Berny optimization.
 Search for a local minimum.
 Step number   1 out of a maximum of   20
 All quantities printed in internal units (Hartrees-Bohrs-Radians)
 Second derivative matrix not updated -- first step.
 The second derivative matrix:
                         nxx2       hn3       hn4      dih4       hn5
           nxx2         0.00000
           hn3          0.00000   0.46309
           hn4          0.00000   0.00000   0.46309
           dih4         0.00000   0.00000   0.00000   0.26743
           hn5          0.00000   0.00000   0.00000   0.00000   0.46309
           dih5         0.00000   0.00000   0.00000   0.13371   0.00000
           hnxx3        0.00000   0.00000   0.00000   0.00000   0.00000
           hnxx4        0.00000   0.00000   0.00000  -0.05134   0.00000
           hnxx5        0.00000   0.00000   0.00000   0.05134   0.00000
                         dih5      hnxx3     hnxx4     hnxx5
           dih5         0.26743
           hnxx3        0.05134   0.05104
           hnxx4       -0.05134   0.03133   0.05104
           hnxx5        0.00000   0.03133   0.03133   0.05104
 ITU=  0
     Eigenvalues ---    0.00000   0.13371   0.40114   0.46309   0.46309
     Eigenvalues ---    0.463091000.000001000.000001000.00000
 RFO step:  Lambda=-3.23033481D-04 EMin= 4.01154804D-17
 Linear search not attempted -- first point.
 Variable       Old X    -DE/DX   Delta X   Delta X   Delta X     New X
                                 (Linear)    (Quad)   (Total)
   nxx2       1.81489   0.00000   0.00000   0.00000   0.00000   1.81489
   hn3        1.90484  -0.00706   0.00000  -0.01524  -0.01524   1.88960
   hn4        1.90484  -0.00706   0.00000  -0.01524  -0.01524   1.88960
   dih4       2.09440   0.00000   0.00000   0.00000   0.00000   2.09440
   hn5        1.90484  -0.00706   0.00000  -0.01524  -0.01524   1.88960
   dih5       2.09440   0.00000   0.00000   0.00000   0.00000   2.09440
  hnxx3       1.78896   0.01367   0.00000   0.00000   0.00000   1.78896
  hnxx4       1.78896   0.01367   0.00000   0.00000   0.00000   1.78896
  hnxx5       1.78896   0.01367   0.00000   0.00000   0.00000   1.78896
         Item               Value     Threshold  Converged?
 Maximum Force            0.007064     0.000450     NO 
 RMS     Force            0.004995     0.000300     NO 
 Maximum Displacement     0.015243     0.001800     NO 
 RMS     Displacement     0.008801     0.001200     NO 
 Predicted change in Energy=-1.616294D-04
 GradGradGradGradGradGradGradGradGradGradGradGradGradGradGradGradGradGrad

 ---------------------------------------------------------------------------------------------------
                            Z-MATRIX (ANGSTROMS AND DEGREES)
   CD    Cent   Atom    N1       Length/X        N2       Alpha/Y        N3        Beta/Z          J
 ---------------------------------------------------------------------------------------------------
      1         X 
      2      1  N        1   0.960400(     1)
      3      2  H        2   0.999934(     2)      1  102.500(     5)
      4      3  H        2   0.999934(     3)      1  102.500(     6)      3  120.000(     8)      0
      5      4  H        2   0.999934(     4)      1  102.500(     7)      4  120.000(     9)      0
 ---------------------------------------------------------------------------------------------------
                         Z-Matrix orientation:                         
 ---------------------------------------------------------------------
 Center     Atomic      Atomic             Coordinates (Angstroms)
 Number     Number       Type             X           Y           Z
 ---------------------------------------------------------------------
      1         -1           0        0.000000    0.000000    0.000000
      2          7           0        0.000000    0.000000    0.960400
      3          1           0        0.976231    0.000000    1.176825
      4          1           0       -0.488116    0.845441    1.176825
      5          1           0       -0.488116   -0.845441    1.176825
 ---------------------------------------------------------------------
                    Distance matrix (angstroms):
                    1          2          3          4          5
     1  X    0.000000
     2  N    0.960400   0.000000
     3  H    1.529034   0.999934   0.000000
     4  H    1.529034   0.999934   1.690882   0.000000
     5  H    1.529034   0.999934   1.690882   1.690882   0.000000
 Stoichiometry    H3N
 Framework group  C3V[C3(N),3SGV(H)]
 Deg. of freedom     2
 Full point group                 C3V     NOp   6
 Largest Abelian subgroup         CS      NOp   2
 Largest concise Abelian subgroup CS      NOp   2
                         Standard orientation:                         
 ---------------------------------------------------------------------
 Center     Atomic      Atomic             Coordinates (Angstroms)
 Number     Number       Type             X           Y           Z
 ---------------------------------------------------------------------
      1          7           0        0.000000    0.000000    0.064928
      2          1           0        0.000000    0.976231   -0.151498
      3          1           0        0.845441   -0.488116   -0.151498
      4          1           0       -0.845441   -0.488116   -0.151498
 ---------------------------------------------------------------------
 Rotational constants (GHZ):    324.5437311    324.5437311    175.3902528
 Standard basis: 6-31G(d,p) (6D, 7F)
 There are    20 symmetry adapted basis functions of A'  symmetry.
 There are    10 symmetry adapted basis functions of A"  symmetry.
 Integral buffers will be    131072 words long.
 Raffenetti 1 integral format.
 Two-electron integral symmetry is turned on.
    30 basis functions,    49 primitive gaussians,    30 cartesian basis functions
     5 alpha electrons        5 beta electrons
       nuclear repulsion energy        12.0523372266 Hartrees.
 NAtoms=    4 NActive=    4 NUniq=    2 SFac= 4.00D+00 NAtFMM=   60 NAOKFM=F Big=F
 One-electron integrals computed using PRISM.
 NBasis=    30 RedAO= T  NBF=    20    10
 NBsUse=    30 1.00D-06 NBFU=    20    10
 Initial guess read from the read-write file.
 B after Tr=     0.000000    0.000000    0.000000
         Rot=    1.000000    0.000000    0.000000    0.000000 Ang=   0.00 deg.
 Initial guess orbital symmetries:
       Occupied  (A1) (A1) (E) (E) (A1)
       Virtual   (A1) (E) (E) (E) (E) (A1) (A1) (E) (E) (A1) (E)
                 (E) (A1) (A2) (E) (E) (E) (E) (A1) (E) (E) (A1)
                 (E) (E) (A1)
 Requested convergence on RMS density matrix=1.00D-08 within 128 cycles.
 Requested convergence on MAX density matrix=1.00D-06.
 Requested convergence on             energy=1.00D-06.
 No special actions if energy rises.
 Keep R1 ints in memory in canonical form, NReq=949711.
 SCF Done:  E(RHF) =  -56.1917466045     A.U. after    9 cycles
             Convg  =    0.9257D-09             -V/T =  2.0025
 ExpMin= 1.61D-01 ExpMax= 4.17D+03 ExpMxC= 6.27D+02 IAcc=3 IRadAn=         5 AccDes= 0.00D+00
 HarFok:  IExCor=  205 AccDes= 0.00D+00 IRadAn=         5 IDoV=-2
 ScaDFX=  1.000000  1.000000  1.000000  1.000000
 Range of M.O.s used for correlation:     2    30
 NBasis=    30 NAE=     5 NBE=     5 NFC=     1 NFV=     0
 NROrb=     29 NOA=     4 NOB=     4 NVA=    25 NVB=    25
 Fully direct method using O(ONN) memory.
 JobTyp=1 Pass  1:  I=   2 to   5 NPSUse=  1 ParTrn=F ParDer=F DoDerP=T.
 Spin components of T(2) and E(2):
     alpha-alpha T2 =       0.6074420084D-02 E2=     -0.2113505168D-01
     alpha-beta  T2 =       0.4045001286D-01 E2=     -0.1445397474D+00
     beta-beta   T2 =       0.6074420084D-02 E2=     -0.2113505168D-01
 ANorm=    0.1025962403D+01
 E2 =    -0.1868098508D+00 EUMP2 =    -0.56378556455248D+02
          IDoAtm=1111
          Differentiating once with respect to electric field.
                with respect to dipole field.
          Differentiating once with respect to nuclear coordinates.
          Keep R1 ints in memory in canonical form, NReq=928986.
          There are     1 degrees of freedom in the 1st order CPHF.  IDoFFX=0.
 LinEq1:  Iter=  0 NonCon=     1 RMS=3.61D-03 Max=1.77D-02
 AX will form     1 AO Fock derivatives at one time.
 LinEq1:  Iter=  1 NonCon=     1 RMS=1.05D-03 Max=7.82D-03
 LinEq1:  Iter=  2 NonCon=     1 RMS=2.10D-04 Max=1.04D-03
 LinEq1:  Iter=  3 NonCon=     1 RMS=2.84D-05 Max=1.59D-04
 LinEq1:  Iter=  4 NonCon=     1 RMS=3.46D-06 Max=2.59D-05
 LinEq1:  Iter=  5 NonCon=     1 RMS=3.89D-07 Max=1.61D-06
 LinEq1:  Iter=  6 NonCon=     1 RMS=4.43D-08 Max=2.23D-07
 LinEq1:  Iter=  7 NonCon=     1 RMS=5.16D-09 Max=4.05D-08
 LinEq1:  Iter=  8 NonCon=     1 RMS=3.57D-10 Max=1.82D-09
 LinEq1:  Iter=  9 NonCon=     0 RMS=2.08D-11 Max=9.87D-11
 Linear equations converged to 1.000D-10 1.000D-09 after     9 iterations.
 End of Minotr Frequency-dependent properties file   721 does not exist.
 End of Minotr Frequency-dependent properties file   722 does not exist.
 Calling FoFJK, ICntrl=      2127 FMM=F ISym2X=1 I1Cent= 0 IOpClX= 0 NMat=1 NMatS=1 NMatT=0.
 ***** Axes restored to original set *****
 -------------------------------------------------------------------
 Center     Atomic                   Forces (Hartrees/Bohr)
 Number     Number              X              Y              Z
 -------------------------------------------------------------------
      1        7           0.000000000    0.000000000   -0.020359865
      2        1          -0.000936463    0.000000000    0.006786622
      3        1           0.000468231   -0.000811001    0.006786622
      4        1           0.000468231    0.000811001    0.006786622
 -------------------------------------------------------------------
 Cartesian Forces:  Max     0.020359865 RMS     0.006802755
 -----------------------------------------------------------------------------------------------
                       Internal Coordinate Forces (Hartree/Bohr or radian)
  Cent   Atom   N1       Length/X         N2         Alpha/Y        N3         Beta/Z          J
 -----------------------------------------------------------------------------------------------
         X 
      1  N        1   0.000000(     1)
      2  H        2   0.000555(     2)      1   0.012903(     5)
      3  H        2   0.000555(     3)      1   0.012903(     6)      3   0.000000(     8)     0
      4  H        2   0.000555(     4)      1   0.012903(     7)      4   0.000000(     9)     0
 -----------------------------------------------------------------------------------------------
 Internal  Forces:  Max     0.012903023 RMS     0.007456443

 GradGradGradGradGradGradGradGradGradGradGradGradGradGradGradGradGradGrad
 Berny optimization.
 Search for a local minimum.
 Step number   2 out of a maximum of   20
 All quantities printed in internal units (Hartrees-Bohrs-Radians)
 Update second derivatives using D2CorN and points    1    2
 DE= -1.50D-04 DEPred=-1.62D-04 R= 9.30D-01
 SS=  1.41D+00  RLast= 2.64D-02 DXNew= 5.0454D-01 7.9207D-02
 Trust test= 9.30D-01 RLast= 2.64D-02 DXMaxT set to 3.00D-01
 The second derivative matrix:
                         nxx2       hn3       hn4      dih4       hn5
           nxx2         0.00000
           hn3          0.00000   0.47533
           hn4          0.00000   0.01224   0.47533
           dih4         0.00000   0.00000   0.00000   0.26743
           hn5          0.00000   0.01224   0.01224   0.00000   0.47533
           dih5         0.00000   0.00000   0.00000   0.13371   0.00000
           hnxx3        0.00000  -0.00842  -0.00842   0.00000  -0.00842
           hnxx4        0.00000  -0.00842  -0.00842  -0.05134  -0.00842
           hnxx5        0.00000  -0.00842  -0.00842   0.05134  -0.00842
                         dih5      hnxx3     hnxx4     hnxx5
           dih5         0.26743
           hnxx3        0.05134   0.05104
           hnxx4       -0.05134   0.03133   0.05104
           hnxx5        0.00000   0.03133   0.03133   0.05104
 ITU=  1  0
     Eigenvalues ---    0.00000   0.13371   0.40114   0.46309   0.46309
     Eigenvalues ---    0.499801000.000001000.000001000.00000
 RFO step:  Lambda=-5.96046453D-09 EMin=-5.12920801D-17
 Quartic linear search produced a step of -0.07106.
 Variable       Old X    -DE/DX   Delta X   Delta X   Delta X     New X
                                 (Linear)    (Quad)   (Total)
   nxx2       1.81489   0.00000   0.00000   0.00000   0.00000   1.81489
   hn3        1.88960   0.00055   0.00108   0.00000   0.00108   1.89068
   hn4        1.88960   0.00055   0.00108   0.00000   0.00108   1.89068
   dih4       2.09440   0.00000   0.00000   0.00000   0.00000   2.09440
   hn5        1.88960   0.00055   0.00108   0.00000   0.00108   1.89068
   dih5       2.09440   0.00000   0.00000   0.00000   0.00000   2.09440
  hnxx3       1.78896   0.01290   0.00000   0.00000   0.00000   1.78896
  hnxx4       1.78896   0.01290   0.00000   0.00000   0.00000   1.78896
  hnxx5       1.78896   0.01290   0.00000   0.00000   0.00000   1.78896
         Item               Value     Threshold  Converged?
 Maximum Force            0.000555     0.000450     NO 
 RMS     Force            0.000392     0.000300     NO 
 Maximum Displacement     0.001083     0.001800     YES
 RMS     Displacement     0.000625     0.001200     YES
 Predicted change in Energy=-9.226839D-07
 GradGradGradGradGradGradGradGradGradGradGradGradGradGradGradGradGradGrad

 ---------------------------------------------------------------------------------------------------
                            Z-MATRIX (ANGSTROMS AND DEGREES)
   CD    Cent   Atom    N1       Length/X        N2       Alpha/Y        N3        Beta/Z          J
 ---------------------------------------------------------------------------------------------------
      1         X 
      2      1  N        1   0.960398(     1)
      3      2  H        2   1.000507(     2)      1  102.500(     5)
      4      3  H        2   1.000507(     3)      1  102.500(     6)      3  120.000(     8)      0
      5      4  H        2   1.000507(     4)      1  102.500(     7)      4  120.000(     9)      0
 ---------------------------------------------------------------------------------------------------
                         Z-Matrix orientation:                         
 ---------------------------------------------------------------------
 Center     Atomic      Atomic             Coordinates (Angstroms)
 Number     Number       Type             X           Y           Z
 ---------------------------------------------------------------------
      1         -1           0        0.000000    0.000000    0.000000
      2          7           0        0.000000    0.000000    0.960398
      3          1           0        0.976791    0.000000    1.176948
      4          1           0       -0.488395    0.845926    1.176948
      5          1           0       -0.488395   -0.845926    1.176948
 ---------------------------------------------------------------------
                    Distance matrix (angstroms):
                    1          2          3          4          5
     1  X    0.000000
     2  N    0.960398   0.000000
     3  H    1.529485   1.000507   0.000000
     4  H    1.529485   1.000507   1.691851   0.000000
     5  H    1.529485   1.000507   1.691851   1.691851   0.000000
 Stoichiometry    H3N
 Framework group  C3V[C3(N),3SGV(H)]
 Deg. of freedom     2
 Full point group                 C3V     NOp   6
 Largest Abelian subgroup         CS      NOp   2
 Largest concise Abelian subgroup CS      NOp   2
                         Standard orientation:                         
 ---------------------------------------------------------------------
 Center     Atomic      Atomic             Coordinates (Angstroms)
 Number     Number       Type             X           Y           Z
 ---------------------------------------------------------------------
      1          7           0        0.000000    0.000000    0.064965
      2          1           0        0.000000    0.976791   -0.151585
      3          1           0        0.845926   -0.488395   -0.151585
      4          1           0       -0.845926   -0.488395   -0.151585
 ---------------------------------------------------------------------
 Rotational constants (GHZ):    324.1719716    324.1719716    175.1893462
 Standard basis: 6-31G(d,p) (6D, 7F)
 There are    20 symmetry adapted basis functions of A'  symmetry.
 There are    10 symmetry adapted basis functions of A"  symmetry.
 Integral buffers will be    131072 words long.
 Raffenetti 1 integral format.
 Two-electron integral symmetry is turned on.
    30 basis functions,    49 primitive gaussians,    30 cartesian basis functions
     5 alpha electrons        5 beta electrons
       nuclear repulsion energy        12.0454323708 Hartrees.
 NAtoms=    4 NActive=    4 NUniq=    2 SFac= 4.00D+00 NAtFMM=   60 NAOKFM=F Big=F
 One-electron integrals computed using PRISM.
 NBasis=    30 RedAO= T  NBF=    20    10
 NBsUse=    30 1.00D-06 NBFU=    20    10
 Initial guess read from the read-write file.
 B after Tr=     0.000000    0.000000    0.000000
         Rot=    1.000000    0.000000    0.000000    0.000000 Ang=   0.00 deg.
 Initial guess orbital symmetries:
       Occupied  (A1) (A1) (E) (E) (A1)
       Virtual   (A1) (E) (E) (E) (E) (A1) (A1) (E) (E) (A1) (E)
                 (E) (A1) (A2) (E) (E) (E) (E) (A1) (E) (E) (A1)
                 (E) (E) (A1)
 Requested convergence on RMS density matrix=1.00D-08 within 128 cycles.
 Requested convergence on MAX density matrix=1.00D-06.
 Requested convergence on             energy=1.00D-06.
 No special actions if energy rises.
 Keep R1 ints in memory in canonical form, NReq=949711.
 SCF Done:  E(RHF) =  -56.1917197788     A.U. after    8 cycles
             Convg  =    0.1351D-08             -V/T =  2.0025
 ExpMin= 1.61D-01 ExpMax= 4.17D+03 ExpMxC= 6.27D+02 IAcc=3 IRadAn=         5 AccDes= 0.00D+00
 HarFok:  IExCor=  205 AccDes= 0.00D+00 IRadAn=         5 IDoV=-2
 ScaDFX=  1.000000  1.000000  1.000000  1.000000
 Range of M.O.s used for correlation:     2    30
 NBasis=    30 NAE=     5 NBE=     5 NFC=     1 NFV=     0
 NROrb=     29 NOA=     4 NOB=     4 NVA=    25 NVB=    25
 Fully direct method using O(ONN) memory.
 JobTyp=1 Pass  1:  I=   2 to   5 NPSUse=  1 ParTrn=F ParDer=F DoDerP=T.
 Spin components of T(2) and E(2):
     alpha-alpha T2 =       0.6077197761D-02 E2=     -0.2113653975D-01
     alpha-beta  T2 =       0.4047699998D-01 E2=     -0.1445644975D+00
     beta-beta   T2 =       0.6077197761D-02 E2=     -0.2113653975D-01
 ANorm=    0.1025978263D+01
 E2 =    -0.1868375770D+00 EUMP2 =    -0.56378557355777D+02
          IDoAtm=1111
          Differentiating once with respect to electric field.
                with respect to dipole field.
          Differentiating once with respect to nuclear coordinates.
          Keep R1 ints in memory in canonical form, NReq=928986.
          There are     1 degrees of freedom in the 1st order CPHF.  IDoFFX=0.
 LinEq1:  Iter=  0 NonCon=     1 RMS=3.62D-03 Max=1.77D-02
 AX will form     1 AO Fock derivatives at one time.
 LinEq1:  Iter=  1 NonCon=     1 RMS=1.05D-03 Max=7.84D-03
 LinEq1:  Iter=  2 NonCon=     1 RMS=2.11D-04 Max=1.05D-03
 LinEq1:  Iter=  3 NonCon=     1 RMS=2.85D-05 Max=1.60D-04
 LinEq1:  Iter=  4 NonCon=     1 RMS=3.48D-06 Max=2.60D-05
 LinEq1:  Iter=  5 NonCon=     1 RMS=3.91D-07 Max=1.62D-06
 LinEq1:  Iter=  6 NonCon=     1 RMS=4.46D-08 Max=2.24D-07
 LinEq1:  Iter=  7 NonCon=     1 RMS=5.14D-09 Max=4.04D-08
 LinEq1:  Iter=  8 NonCon=     1 RMS=3.57D-10 Max=1.82D-09
 LinEq1:  Iter=  9 NonCon=     0 RMS=2.09D-11 Max=9.97D-11
 Linear equations converged to 1.000D-10 1.000D-09 after     9 iterations.
 End of Minotr Frequency-dependent properties file   721 does not exist.
 End of Minotr Frequency-dependent properties file   722 does not exist.
 Calling FoFJK, ICntrl=      2127 FMM=F ISym2X=1 I1Cent= 0 IOpClX= 0 NMat=1 NMatS=1 NMatT=0.
 ***** Axes restored to original set *****
 -------------------------------------------------------------------
 Center     Atomic                   Forces (Hartrees/Bohr)
 Number     Number              X              Y              Z
 -------------------------------------------------------------------
      1        7           0.000000000    0.000000000   -0.020072635
      2        1          -0.001483372    0.000000000    0.006690878
      3        1           0.000741686   -0.001284638    0.006690878
      4        1           0.000741686    0.001284638    0.006690878
 -------------------------------------------------------------------
 Cartesian Forces:  Max     0.020072635 RMS     0.006731861
 -----------------------------------------------------------------------------------------------
                       Internal Coordinate Forces (Hartree/Bohr or radian)
  Cent   Atom   N1       Length/X         N2         Alpha/Y        N3         Beta/Z          J
 -----------------------------------------------------------------------------------------------
         X 
      1  N        1   0.000000(     1)
      2  H        2   0.000000(     2)      1   0.012957(     5)
      3  H        2   0.000000(     3)      1   0.012957(     6)      3   0.000000(     8)     0
      4  H        2   0.000000(     4)      1   0.012957(     7)      4   0.000000(     9)     0
 -----------------------------------------------------------------------------------------------
 Internal  Forces:  Max     0.012957496 RMS     0.007481014

 GradGradGradGradGradGradGradGradGradGradGradGradGradGradGradGradGradGrad
 Berny optimization.
 Search for a local minimum.
 Step number   3 out of a maximum of   20
 All quantities printed in internal units (Hartrees-Bohrs-Radians)
 Update second derivatives using D2CorN and points    2    3
 DE= -9.01D-07 DEPred=-9.23D-07 R= 9.76D-01
 Trust test= 9.76D-01 RLast= 1.88D-03 DXMaxT set to 3.00D-01
 The second derivative matrix:
                         nxx2       hn3       hn4      dih4       hn5
           nxx2         0.00000
           hn3         -0.00001   0.47942
           hn4         -0.00001   0.01633   0.47942
           dih4         0.00000   0.00000   0.00000   0.26743
           hn5         -0.00001   0.01633   0.01633   0.00000   0.47942
           dih5         0.00000   0.00000   0.00000   0.13371   0.00000
           hnxx3        0.00001  -0.01259  -0.01259   0.00000  -0.01259
           hnxx4        0.00001  -0.01259  -0.01259  -0.05134  -0.01259
           hnxx5        0.00001  -0.01259  -0.01259   0.05134  -0.01259
                         dih5      hnxx3     hnxx4     hnxx5
           dih5         0.26743
           hnxx3        0.05134   0.05104
           hnxx4       -0.05134   0.03133   0.05104
           hnxx5        0.00000   0.03133   0.03133   0.05104
 ITU=  0  1  0
     Eigenvalues ---    0.00000   0.13371   0.40114   0.46309   0.46309
     Eigenvalues ---    0.512071000.000001000.000001000.00000
 RFO step:  Lambda=-6.18640389D-09 EMin=-2.25939415D-10
 Quartic linear search produced a step of -0.00007.
 Variable       Old X    -DE/DX   Delta X   Delta X   Delta X     New X
                                 (Linear)    (Quad)   (Total)
   nxx2       1.81489   0.00000   0.00000   0.00004   0.00004   1.81493
   hn3        1.89068   0.00000   0.00000   0.00000   0.00000   1.89068
   hn4        1.89068   0.00000   0.00000   0.00000   0.00000   1.89068
   dih4       2.09440   0.00000   0.00000   0.00000   0.00000   2.09440
   hn5        1.89068   0.00000   0.00000   0.00000   0.00000   1.89068
   dih5       2.09440   0.00000   0.00000   0.00000   0.00000   2.09440
  hnxx3       1.78896   0.01296   0.00000   0.00000   0.00000   1.78896
  hnxx4       1.78896   0.01296   0.00000   0.00000   0.00000   1.78896
  hnxx5       1.78896   0.01296   0.00000   0.00000   0.00000   1.78896
         Item               Value     Threshold  Converged?
 Maximum Force            0.000000     0.000450     YES
 RMS     Force            0.000000     0.000300     YES
 Maximum Displacement     0.000037     0.001800     YES
 RMS     Displacement     0.000012     0.001200     YES
 Predicted change in Energy=-4.456100D-15
 Optimization completed.
    -- Stationary point found.
                       ----------------------------
                       !   Optimized Parameters   !
                       ! (Angstroms and Degrees)  !
 ----------------------                            ----------------------
 !      Name          Value   Derivative information (Atomic Units)     !
 ------------------------------------------------------------------------
 !      nxx2         0.9604   -DE/DX =    0.0                           !
 !       hn3         1.0005   -DE/DX =    0.0                           !
 !       hn4         1.0005   -DE/DX =    0.0                           !
 !      dih4       120.0      -DE/DX =    0.0                           !
 !       hn5         1.0005   -DE/DX =    0.0                           !
 !      dih5       120.0      -DE/DX =    0.0                           !
 !      hnxx3      102.5      -DE/DX =    0.013                         !
 !      hnxx4      102.5      -DE/DX =    0.013                         !
 !      hnxx5      102.5      -DE/DX =    0.013                         !
 ------------------------------------------------------------------------
 GradGradGradGradGradGradGradGradGradGradGradGradGradGradGradGradGradGrad

 ---------------------------------------------------------------------------------------------------
                            Z-MATRIX (ANGSTROMS AND DEGREES)
   CD    Cent   Atom    N1       Length/X        N2       Alpha/Y        N3        Beta/Z          J
 ---------------------------------------------------------------------------------------------------
      1         X 
      2      1  N        1   0.960398(     1)
      3      2  H        2   1.000507(     2)      1  102.500(     5)
      4      3  H        2   1.000507(     3)      1  102.500(     6)      3  120.000(     8)      0
      5      4  H        2   1.000507(     4)      1  102.500(     7)      4  120.000(     9)      0
 ---------------------------------------------------------------------------------------------------
                         Z-Matrix orientation:                         
 ---------------------------------------------------------------------
 Center     Atomic      Atomic             Coordinates (Angstroms)
 Number     Number       Type             X           Y           Z
 ---------------------------------------------------------------------
      1         -1           0        0.000000    0.000000    0.000000
      2          7           0        0.000000    0.000000    0.960398
      3          1           0        0.976791    0.000000    1.176948
      4          1           0       -0.488395    0.845926    1.176948
      5          1           0       -0.488395   -0.845926    1.176948
 ---------------------------------------------------------------------
                    Distance matrix (angstroms):
                    1          2          3          4          5
     1  X    0.000000
     2  N    0.960398   0.000000
     3  H    1.529485   1.000507   0.000000
     4  H    1.529485   1.000507   1.691851   0.000000
     5  H    1.529485   1.000507   1.691851   1.691851   0.000000
 Stoichiometry    H3N
 Framework group  C3V[C3(N),3SGV(H)]
 Deg. of freedom     2
 Full point group                 C3V     NOp   6
 Largest Abelian subgroup         CS      NOp   2
 Largest concise Abelian subgroup CS      NOp   2
                         Standard orientation:                         
 ---------------------------------------------------------------------
 Center     Atomic      Atomic             Coordinates (Angstroms)
 Number     Number       Type             X           Y           Z
 ---------------------------------------------------------------------
      1          7           0        0.000000    0.000000    0.064965
      2          1           0        0.000000    0.976791   -0.151585
      3          1           0        0.845926   -0.488395   -0.151585
      4          1           0       -0.845926   -0.488395   -0.151585
 ---------------------------------------------------------------------
 Rotational constants (GHZ):    324.1719716    324.1719716    175.1893462

 **********************************************************************

            Population analysis using the SCF density.

 **********************************************************************

 Orbital symmetries:
       Occupied  (A1) (A1) (E) (E) (A1)
       Virtual   (A1) (E) (E) (E) (E) (A1) (A1) (E) (E) (A1) (E)
                 (E) (A1) (A2) (E) (E) (E) (E) (A1) (E) (E) (A1)
                 (E) (E) (A1)
 The electronic state is 1-A1.
 Alpha  occ. eigenvalues --  -15.52482  -1.12189  -0.63365  -0.63365  -0.39356
 Alpha virt. eigenvalues --    0.22804   0.32843   0.32843   0.91710   0.91710
 Alpha virt. eigenvalues --    0.96894   1.07418   1.17316   1.17316   1.31520
 Alpha virt. eigenvalues --    1.73129   1.73129   2.31355   2.35488   2.45828
 Alpha virt. eigenvalues --    2.45828   2.87298   2.87298   2.87639   3.32901
 Alpha virt. eigenvalues --    3.32901   3.68249   3.83718   3.83718   4.39344
          Condensed to atoms (all electrons):
              1          2          3          4
     1  N    6.735245   0.366544   0.366544   0.366544
     2  H    0.366544   0.406602  -0.025719  -0.025719
     3  H    0.366544  -0.025719   0.406602  -0.025719
     4  H    0.366544  -0.025719  -0.025719   0.406602
 Mulliken atomic charges:
              1
     1  N   -0.834876
     2  H    0.278292
     3  H    0.278292
     4  H    0.278292
 Sum of Mulliken atomic charges =   0.00000
 Mulliken charges with hydrogens summed into heavy atoms:
              1
     1  N    0.000000
 Sum of Mulliken charges with hydrogens summed into heavy atoms =   0.00000
 Electronic spatial extent (au):  <R**2>=             25.7595
 Charge=              0.0000 electrons
 Dipole moment (field-independent basis, Debye):
    X=              0.0000    Y=              0.0000    Z=             -1.1904  Tot=              1.1904
 Quadrupole moment (field-independent basis, Debye-Ang):
   XX=             -5.6501   YY=             -5.6501   ZZ=             -9.1257
   XY=              0.0000   XZ=              0.0000   YZ=              0.0000
 Traceless Quadrupole moment (field-independent basis, Debye-Ang):
   XX=              1.1585   YY=              1.1585   ZZ=             -2.3171
   XY=              0.0000   XZ=              0.0000   YZ=              0.0000
 Octapole moment (field-independent basis, Debye-Ang**2):
  XXX=              0.0000  YYY=              1.1297  ZZZ=             -1.0622  XYY=              0.0000
  XXY=             -1.1297  XXZ=             -0.6124  XZZ=              0.0000  YZZ=              0.0000
  YYZ=             -0.6124  XYZ=              0.0000
 Hexadecapole moment (field-independent basis, Debye-Ang**3):
 XXXX=             -8.7454 YYYY=             -8.7454 ZZZZ=             -9.0232 XXXY=              0.0000
 XXXZ=              0.0000 YYYX=              0.0000 YYYZ=             -0.2333 ZZZX=              0.0000
 ZZZY=              0.0000 XXYY=             -2.9151 XXZZ=             -3.2476 YYZZ=             -3.2476
 XXYZ=              0.2333 YYXZ=              0.0000 ZZXY=              0.0000
 N-N= 1.204543237077D+01 E-N=-1.559095440189D+02  KE= 5.605035086394D+01
 Symmetry A'   KE= 5.346287229417D+01
 Symmetry A"   KE= 2.587478569770D+00
 1\1\GINC-NISER-THINKCENTRE-M93P\POpt\RMP2-FC\6-31G(d,p)\H3N1\STUDENT\0
 4-Mar-2021\1\\# mp2/6-31g** opt=z-matrix\\si\\0,1\X\N,1,nxx2\H,2,hn3,1
 ,hnxx3\H,2,hn4,1,hnxx4,3,dih4,0\H,2,hn5,1,hnxx5,4,dih5,0\\nxx2=0.96039
 826\hn3=1.00050679\hn4=1.00050679\dih4=120.\hn5=1.00050679\dih5=120.\h
 nxx3=102.5\hnxx4=102.5\hnxx5=102.5\\Version=EM64L-G09RevC.01\State=1-A
 1\HF=-56.1917198\MP2=-56.3785574\RMSD=1.351e-09\RMSF=6.732e-03\Dipole=
 0.,0.,0.4606109\PG=C03V [C3(N1),3SGV(H1)]\\@


 CONFIDENCE IS WHAT YOU FEEL BEFORE YOU FULLY
 COMPREHEND THE SITUATION.
 Job cpu time:  0 days  0 hours  0 minutes  3.0 seconds.
 File lengths (MBytes):  RWF=      5 Int=      0 D2E=      0 Chk=      1 Scr=      1
 Normal termination of Gaussian 09 at Thu Mar  4 16:03:12 2021.
