 Entering Gaussian System, Link 0=g09
 Input=m105.com
 Output=m105.log
 Initial command:
 /home/student/g09/l1.exe /home/student/singh/4/a/Gau-30799.inp -scrdir=/home/student/singh/4/a/
 Entering Link 1 = /home/student/g09/l1.exe PID=     30802.
  
 Copyright (c) 1988,1990,1992,1993,1995,1998,2003,2009,2011,
            Gaussian, Inc.  All Rights Reserved.
  
 This is part of the Gaussian(R) 09 program.  It is based on
 the Gaussian(R) 03 system (copyright 2003, Gaussian, Inc.),
 the Gaussian(R) 98 system (copyright 1998, Gaussian, Inc.),
 the Gaussian(R) 94 system (copyright 1995, Gaussian, Inc.),
 the Gaussian 92(TM) system (copyright 1992, Gaussian, Inc.),
 the Gaussian 90(TM) system (copyright 1990, Gaussian, Inc.),
 the Gaussian 88(TM) system (copyright 1988, Gaussian, Inc.),
 the Gaussian 86(TM) system (copyright 1986, Carnegie Mellon
 University), and the Gaussian 82(TM) system (copyright 1983,
 Carnegie Mellon University). Gaussian is a federally registered
 trademark of Gaussian, Inc.
  
 This software contains proprietary and confidential information,
 including trade secrets, belonging to Gaussian, Inc.
  
 This software is provided under written license and may be
 used, copied, transmitted, or stored only in accord with that
 written license.
  
 The following legend is applicable only to US Government
 contracts under FAR:
  
                    RESTRICTED RIGHTS LEGEND
  
 Use, reproduction and disclosure by the US Government is
 subject to restrictions as set forth in subparagraphs (a)
 and (c) of the Commercial Computer Software - Restricted
 Rights clause in FAR 52.227-19.
  
 Gaussian, Inc.
 340 Quinnipiac St., Bldg. 40, Wallingford CT 06492
  
  
 ---------------------------------------------------------------
 Warning -- This program may not be used in any manner that
 competes with the business of Gaussian, Inc. or will provide
 assistance to any competitor of Gaussian, Inc.  The licensee
 of this program is prohibited from giving any competitor of
 Gaussian, Inc. access to this program.  By using this program,
 the user acknowledges that Gaussian, Inc. is engaged in the
 business of creating and licensing software in the field of
 computational chemistry and represents and warrants to the
 licensee that it is not a competitor of Gaussian, Inc. and that
 it will not use this program in any manner prohibited above.
 ---------------------------------------------------------------
  

 Cite this work as:
 Gaussian 09, Revision C.01,
 M. J. Frisch, G. W. Trucks, H. B. Schlegel, G. E. Scuseria, 
 M. A. Robb, J. R. Cheeseman, G. Scalmani, V. Barone, B. Mennucci, 
 G. A. Petersson, H. Nakatsuji, M. Caricato, X. Li, H. P. Hratchian, 
 A. F. Izmaylov, J. Bloino, G. Zheng, J. L. Sonnenberg, M. Hada, 
 M. Ehara, K. Toyota, R. Fukuda, J. Hasegawa, M. Ishida, T. Nakajima, 
 Y. Honda, O. Kitao, H. Nakai, T. Vreven, J. A. Montgomery, Jr., 
 J. E. Peralta, F. Ogliaro, M. Bearpark, J. J. Heyd, E. Brothers, 
 K. N. Kudin, V. N. Staroverov, T. Keith, R. Kobayashi, J. Normand, 
 K. Raghavachari, A. Rendell, J. C. Burant, S. S. Iyengar, J. Tomasi, 
 M. Cossi, N. Rega, J. M. Millam, M. Klene, J. E. Knox, J. B. Cross, 
 V. Bakken, C. Adamo, J. Jaramillo, R. Gomperts, R. E. Stratmann, 
 O. Yazyev, A. J. Austin, R. Cammi, C. Pomelli, J. W. Ochterski, 
 R. L. Martin, K. Morokuma, V. G. Zakrzewski, G. A. Voth, 
 P. Salvador, J. J. Dannenberg, S. Dapprich, A. D. Daniels, 
 O. Farkas, J. B. Foresman, J. V. Ortiz, J. Cioslowski, 
 and D. J. Fox, Gaussian, Inc., Wallingford CT, 2010.
 
 ******************************************
 Gaussian 09:  EM64L-G09RevC.01 23-Sep-2011
                 4-Mar-2021 
 ******************************************
 --------------------------
 # mp2/6-31g** opt=z-matrix
 --------------------------
 1/10=7,18=40,38=1/1,3;
 2/12=2,17=6,18=5,29=3,40=1/2;
 3/5=1,6=6,7=101,11=9,16=1,25=1,30=1,71=1/1,2,3;
 4//1;
 5/5=2,38=5/2;
 8/6=4,10=2/1;
 9/15=2,16=-3/6;
 10/5=1/2;
 6/7=2,8=2,9=2,10=2/1;
 7/12=2,29=1/1,2,3,16;
 1/10=7,18=40/3(2);
 2/29=3/2;
 99//99;
 2/29=3/2;
 3/5=1,6=6,7=101,11=9,16=1,25=1,30=1,71=1/1,2,3;
 4/5=5,16=3/1;
 5/5=2,38=5/2;
 8/6=4,10=2/1;
 9/15=2,16=-3/6;
 10/5=1/2;
 7/12=2/1,2,3,16;
 1/18=40/3(-8);
 2/29=3/2;
 6/7=2,8=2,9=2,10=2/1;
 99//99;
 --
 si
 --
 Charge =  0 Multiplicity = 1
 Symbolic Z-Matrix:
 xx
 n                    1    nxx2
 h                    2    hn3      1    hnxx3
 h                    2    hn4      1    hnxx4    3    dih4     0
 h                    2    hn5      1    hnxx5    4    dih5     0
       Variables:
  nxx2                  0.9604                   
  hn3                   1.008                    
  hn4                   1.008                    
  dih4                120.                       
  hn5                   1.008                    
  dih5                120.                       
       Constants:
  hnxx3               105.                       
  hnxx4               105.                       
  hnxx5               105.                       
 

 GradGradGradGradGradGradGradGradGradGradGradGradGradGradGradGradGradGrad
 Berny optimization.
 Initialization pass.
                       ----------------------------
                       !    Initial Parameters    !
                       ! (Angstroms and Degrees)  !
 ----------------------                            ----------------------
 !      Name          Value   Derivative information (Atomic Units)     !
 ------------------------------------------------------------------------
 !      nxx2         0.9604   estimate D2E/DX2                          !
 !       hn3         1.008    estimate D2E/DX2                          !
 !       hn4         1.008    estimate D2E/DX2                          !
 !      dih4       120.0      estimate D2E/DX2                          !
 !       hn5         1.008    estimate D2E/DX2                          !
 !      dih5       120.0      estimate D2E/DX2                          !
 !      hnxx3      105.0      Frozen                                    !
 !      hnxx4      105.0      Frozen                                    !
 !      hnxx5      105.0      Frozen                                    !
 ------------------------------------------------------------------------
 Trust Radius=3.00D-01 FncErr=1.00D-07 GrdErr=1.00D-07
 Number of steps in this run=     20 maximum allowed number of steps=    100.
 GradGradGradGradGradGradGradGradGradGradGradGradGradGradGradGradGradGrad

 ---------------------------------------------------------------------------------------------------
                            Z-MATRIX (ANGSTROMS AND DEGREES)
   CD    Cent   Atom    N1       Length/X        N2       Alpha/Y        N3        Beta/Z          J
 ---------------------------------------------------------------------------------------------------
      1         X 
      2      1  N        1   0.960400(     1)
      3      2  H        2   1.008000(     2)      1  105.000(     5)
      4      3  H        2   1.008000(     3)      1  105.000(     6)      3  120.000(     8)      0
      5      4  H        2   1.008000(     4)      1  105.000(     7)      4  120.000(     9)      0
 ---------------------------------------------------------------------------------------------------
                         Z-Matrix orientation:                         
 ---------------------------------------------------------------------
 Center     Atomic      Atomic             Coordinates (Angstroms)
 Number     Number       Type             X           Y           Z
 ---------------------------------------------------------------------
      1         -1           0        0.000000    0.000000    0.000000
      2          7           0        0.000000    0.000000    0.960400
      3          1           0        0.973653    0.000000    1.221290
      4          1           0       -0.486827    0.843208    1.221290
      5          1           0       -0.486827   -0.843208    1.221290
 ---------------------------------------------------------------------
                    Distance matrix (angstroms):
                    1          2          3          4          5
     1  X    0.000000
     2  N    0.960400   0.000000
     3  H    1.561906   1.008000   0.000000
     4  H    1.561906   1.008000   1.686417   0.000000
     5  H    1.561906   1.008000   1.686417   1.686417   0.000000
 Stoichiometry    H3N
 Framework group  C3V[C3(N),3SGV(H)]
 Deg. of freedom     2
 Full point group                 C3V     NOp   6
 Largest Abelian subgroup         CS      NOp   2
 Largest concise Abelian subgroup CS      NOp   2
                         Standard orientation:                         
 ---------------------------------------------------------------------
 Center     Atomic      Atomic             Coordinates (Angstroms)
 Number     Number       Type             X           Y           Z
 ---------------------------------------------------------------------
      1          7           0        0.000000    0.000000    0.078267
      2          1           0        0.000000    0.973653   -0.182623
      3          1           0        0.843208   -0.486827   -0.182623
      4          1           0       -0.843208   -0.486827   -0.182623
 ---------------------------------------------------------------------
 Rotational constants (GHZ):    315.3940191    315.3940191    176.3202438
 Standard basis: 6-31G(d,p) (6D, 7F)
 There are    20 symmetry adapted basis functions of A'  symmetry.
 There are    10 symmetry adapted basis functions of A"  symmetry.
 Integral buffers will be    131072 words long.
 Raffenetti 1 integral format.
 Two-electron integral symmetry is turned on.
    30 basis functions,    49 primitive gaussians,    30 cartesian basis functions
     5 alpha electrons        5 beta electrons
       nuclear repulsion energy        11.9658888806 Hartrees.
 NAtoms=    4 NActive=    4 NUniq=    2 SFac= 4.00D+00 NAtFMM=   60 NAOKFM=F Big=F
 One-electron integrals computed using PRISM.
 NBasis=    30 RedAO= T  NBF=    20    10
 NBsUse=    30 1.00D-06 NBFU=    20    10
 Harris functional with IExCor=  205 diagonalized for initial guess.
 ExpMin= 1.61D-01 ExpMax= 4.17D+03 ExpMxC= 6.27D+02 IAcc=1 IRadAn=         1 AccDes= 0.00D+00
 HarFok:  IExCor=  205 AccDes= 0.00D+00 IRadAn=         1 IDoV= 1
 ScaDFX=  1.000000  1.000000  1.000000  1.000000
 FoFCou: FMM=F IPFlag=           0 FMFlag=      100000 FMFlg1=           0
         NFxFlg=           0 DoJE=T BraDBF=F KetDBF=T FulRan=T
         Omega=  0.000000  0.000000  1.000000  0.000000  0.000000 ICntrl=     500 IOpCl=  0
         NMat0=    1 NMatS0=    1 NMatT0=    0 NMatD0=    1 NMtDS0=    0 NMtDT0=    0
         I1Cent=           4 NGrid=           0.
 Petite list used in FoFCou.
 Initial guess orbital symmetries:
       Occupied  (A1) (A1) (E) (E) (A1)
       Virtual   (A1) (E) (E) (A1) (E) (E) (A1) (E) (E) (A1) (E)
                 (E) (A1) (A2) (E) (E) (E) (E) (A1) (E) (E) (A1)
                 (E) (E) (A1)
 The electronic state of the initial guess is 1-A1.
 Requested convergence on RMS density matrix=1.00D-08 within 128 cycles.
 Requested convergence on MAX density matrix=1.00D-06.
 Requested convergence on             energy=1.00D-06.
 No special actions if energy rises.
 Keep R1 ints in memory in canonical form, NReq=949711.
 SCF Done:  E(RHF) =  -56.1929123447     A.U. after   10 cycles
             Convg  =    0.3250D-08             -V/T =  2.0030
 ExpMin= 1.61D-01 ExpMax= 4.17D+03 ExpMxC= 6.27D+02 IAcc=3 IRadAn=         5 AccDes= 0.00D+00
 HarFok:  IExCor=  205 AccDes= 0.00D+00 IRadAn=         5 IDoV=-2
 ScaDFX=  1.000000  1.000000  1.000000  1.000000
 Range of M.O.s used for correlation:     2    30
 NBasis=    30 NAE=     5 NBE=     5 NFC=     1 NFV=     0
 NROrb=     29 NOA=     4 NOB=     4 NVA=    25 NVB=    25
 Fully direct method using O(ONN) memory.
 JobTyp=1 Pass  1:  I=   2 to   5 NPSUse=  1 ParTrn=F ParDer=F DoDerP=T.
 Spin components of T(2) and E(2):
     alpha-alpha T2 =       0.6105814374D-02 E2=     -0.2111598756D-01
     alpha-beta  T2 =       0.4090507650D-01 E2=     -0.1450117303D+00
     beta-beta   T2 =       0.6105814374D-02 E2=     -0.2111598756D-01
 ANorm=    0.1026214746D+01
 E2 =    -0.1872437054D+00 EUMP2 =    -0.56380156050177D+02
          IDoAtm=1111
          Differentiating once with respect to electric field.
                with respect to dipole field.
          Differentiating once with respect to nuclear coordinates.
          Keep R1 ints in memory in canonical form, NReq=928986.
          There are     1 degrees of freedom in the 1st order CPHF.  IDoFFX=0.
 LinEq1:  Iter=  0 NonCon=     1 RMS=3.71D-03 Max=1.83D-02
 AX will form     1 AO Fock derivatives at one time.
 LinEq1:  Iter=  1 NonCon=     1 RMS=1.12D-03 Max=8.24D-03
 LinEq1:  Iter=  2 NonCon=     1 RMS=2.43D-04 Max=1.31D-03
 LinEq1:  Iter=  3 NonCon=     1 RMS=3.27D-05 Max=1.91D-04
 LinEq1:  Iter=  4 NonCon=     1 RMS=3.99D-06 Max=2.55D-05
 LinEq1:  Iter=  5 NonCon=     1 RMS=4.10D-07 Max=1.70D-06
 LinEq1:  Iter=  6 NonCon=     1 RMS=4.68D-08 Max=2.33D-07
 LinEq1:  Iter=  7 NonCon=     1 RMS=4.04D-09 Max=3.45D-08
 LinEq1:  Iter=  8 NonCon=     1 RMS=3.09D-10 Max=1.42D-09
 LinEq1:  Iter=  9 NonCon=     0 RMS=1.74D-11 Max=7.28D-11
 Linear equations converged to 1.000D-10 1.000D-09 after     9 iterations.
 End of Minotr Frequency-dependent properties file   721 does not exist.
 End of Minotr Frequency-dependent properties file   722 does not exist.

 **********************************************************************

            Population analysis using the SCF density.

 **********************************************************************

 Orbital symmetries:
       Occupied  (A1) (A1) (E) (E) (A1)
       Virtual   (A1) (E) (E) (E) (E) (A1) (A1) (E) (E) (A1) (E)
                 (E) (A1) (A2) (E) (E) (E) (E) (A1) (E) (E) (A1)
                 (E) (E) (A1)
 The electronic state is 1-A1.
 Alpha  occ. eigenvalues --  -15.52946  -1.12238  -0.62877  -0.62877  -0.39913
 Alpha virt. eigenvalues --    0.22551   0.32614   0.32614   0.91271   0.91271
 Alpha virt. eigenvalues --    0.96788   1.08928   1.16647   1.16647   1.31607
 Alpha virt. eigenvalues --    1.72132   1.72132   2.26679   2.35916   2.47293
 Alpha virt. eigenvalues --    2.47293   2.82008   2.82008   2.92704   3.32810
 Alpha virt. eigenvalues --    3.32810   3.64977   3.81253   3.81253   4.37100
          Condensed to atoms (all electrons):
              1          2          3          4
     1  N    6.738486   0.362130   0.362130   0.362130
     2  H    0.362130   0.415237  -0.026164  -0.026164
     3  H    0.362130  -0.026164   0.415237  -0.026164
     4  H    0.362130  -0.026164  -0.026164   0.415237
 Mulliken atomic charges:
              1
     1  N   -0.824878
     2  H    0.274959
     3  H    0.274959
     4  H    0.274959
 Sum of Mulliken atomic charges =   0.00000
 Mulliken charges with hydrogens summed into heavy atoms:
              1
     1  N    0.000000
 Sum of Mulliken charges with hydrogens summed into heavy atoms =   0.00000
 Electronic spatial extent (au):  <R**2>=             25.9527
 Charge=              0.0000 electrons
 Dipole moment (field-independent basis, Debye):
    X=              0.0000    Y=              0.0000    Z=             -1.3955  Tot=              1.3955
 Quadrupole moment (field-independent basis, Debye-Ang):
   XX=             -5.7401   YY=             -5.7401   ZZ=             -9.0802
   XY=              0.0000   XZ=              0.0000   YZ=              0.0000
 Traceless Quadrupole moment (field-independent basis, Debye-Ang):
   XX=              1.1134   YY=              1.1134   ZZ=             -2.2267
   XY=              0.0000   XZ=              0.0000   YZ=              0.0000
 Octapole moment (field-independent basis, Debye-Ang**2):
  XXX=              0.0000  YYY=              1.0939  ZZZ=             -1.2423  XYY=              0.0000
  XXY=             -1.0939  XXZ=             -0.7177  XZZ=              0.0000  YZZ=              0.0000
  YYZ=             -0.7177  XYZ=              0.0000
 Hexadecapole moment (field-independent basis, Debye-Ang**3):
 XXXX=             -8.9409 YYYY=             -8.9409 ZZZZ=             -9.1994 XXXY=              0.0000
 XXXZ=              0.0000 YYYX=              0.0000 YYYZ=             -0.2749 ZZZX=              0.0000
 ZZZY=              0.0000 XXYY=             -2.9803 XXZZ=             -3.2618 YYZZ=             -3.2618
 XXYZ=              0.2749 YYXZ=              0.0000 ZZXY=              0.0000
 N-N= 1.196588888065D+01 E-N=-1.557264237144D+02  KE= 5.602583273228D+01
 Symmetry A'   KE= 5.345037895179D+01
 Symmetry A"   KE= 2.575453780486D+00
 Calling FoFJK, ICntrl=      2127 FMM=F ISym2X=1 I1Cent= 0 IOpClX= 0 NMat=1 NMatS=1 NMatT=0.
 ***** Axes restored to original set *****
 -------------------------------------------------------------------
 Center     Atomic                   Forces (Hartrees/Bohr)
 Number     Number              X              Y              Z
 -------------------------------------------------------------------
      1        7           0.000000000    0.000000000   -0.015815848
      2        1          -0.006277427    0.000000000    0.005271949
      3        1           0.003138714   -0.005436411    0.005271949
      4        1           0.003138714    0.005436411    0.005271949
 -------------------------------------------------------------------
 Cartesian Forces:  Max     0.015815848 RMS     0.006135550
 -----------------------------------------------------------------------------------------------
                       Internal Coordinate Forces (Hartree/Bohr or radian)
  Cent   Atom   N1       Length/X         N2         Alpha/Y        N3         Beta/Z          J
 -----------------------------------------------------------------------------------------------
         X 
      1  N        1   0.000000(     1)
      2  H        2  -0.004699(     2)      1   0.012795(     5)
      3  H        2  -0.004699(     3)      1   0.012795(     6)      3   0.000000(     8)     0
      4  H        2  -0.004699(     4)      1   0.012795(     7)      4   0.000000(     9)     0
 -----------------------------------------------------------------------------------------------
 Internal  Forces:  Max     0.012794893 RMS     0.007869569

 GradGradGradGradGradGradGradGradGradGradGradGradGradGradGradGradGradGrad
 Berny optimization.
 Search for a local minimum.
 Step number   1 out of a maximum of   20
 All quantities printed in internal units (Hartrees-Bohrs-Radians)
 Second derivative matrix not updated -- first step.
 The second derivative matrix:
                         nxx2       hn3       hn4      dih4       hn5
           nxx2         0.00000
           hn3          0.00000   0.46309
           hn4          0.00000   0.00000   0.46309
           dih4         0.00000   0.00000   0.00000   0.24860
           hn5          0.00000   0.00000   0.00000   0.00000   0.46309
           dih5         0.00000   0.00000   0.00000   0.12430   0.00000
           hnxx3        0.00000   0.00000   0.00000   0.00000   0.00000
           hnxx4        0.00000   0.00000   0.00000  -0.05769   0.00000
           hnxx5        0.00000   0.00000   0.00000   0.05769   0.00000
                         dih5      hnxx3     hnxx4     hnxx5
           dih5         0.24860
           hnxx3        0.05769   0.05963
           hnxx4       -0.05769   0.03286   0.05963
           hnxx5        0.00000   0.03286   0.03286   0.05963
 ITU=  0
     Eigenvalues ---    0.00000   0.12430   0.37291   0.46309   0.46309
     Eigenvalues ---    0.463091000.000001000.000001000.00000
 RFO step:  Lambda=-1.43001716D-04 EMin= 6.91195826D-17
 Linear search not attempted -- first point.
 Variable       Old X    -DE/DX   Delta X   Delta X   Delta X     New X
                                 (Linear)    (Quad)   (Total)
   nxx2       1.81489   0.00000   0.00000   0.00000   0.00000   1.81489
   hn3        1.90484  -0.00470   0.00000  -0.01014  -0.01014   1.89470
   hn4        1.90484  -0.00470   0.00000  -0.01014  -0.01014   1.89470
   dih4       2.09440   0.00000   0.00000   0.00000   0.00000   2.09440
   hn5        1.90484  -0.00470   0.00000  -0.01014  -0.01014   1.89470
   dih5       2.09440   0.00000   0.00000   0.00000   0.00000   2.09440
  hnxx3       1.83260   0.01279   0.00000   0.00000   0.00000   1.83260
  hnxx4       1.83260   0.01279   0.00000   0.00000   0.00000   1.83260
  hnxx5       1.83260   0.01279   0.00000   0.00000   0.00000   1.83260
         Item               Value     Threshold  Converged?
 Maximum Force            0.004699     0.000450     NO 
 RMS     Force            0.003323     0.000300     NO 
 Maximum Displacement     0.010144     0.001800     NO 
 RMS     Displacement     0.005857     0.001200     NO 
 Predicted change in Energy=-7.152294D-05
 GradGradGradGradGradGradGradGradGradGradGradGradGradGradGradGradGradGrad

 ---------------------------------------------------------------------------------------------------
                            Z-MATRIX (ANGSTROMS AND DEGREES)
   CD    Cent   Atom    N1       Length/X        N2       Alpha/Y        N3        Beta/Z          J
 ---------------------------------------------------------------------------------------------------
      1         X 
      2      1  N        1   0.960400(     1)
      3      2  H        2   1.002632(     2)      1  105.000(     5)
      4      3  H        2   1.002632(     3)      1  105.000(     6)      3  120.000(     8)      0
      5      4  H        2   1.002632(     4)      1  105.000(     7)      4  120.000(     9)      0
 ---------------------------------------------------------------------------------------------------
                         Z-Matrix orientation:                         
 ---------------------------------------------------------------------
 Center     Atomic      Atomic             Coordinates (Angstroms)
 Number     Number       Type             X           Y           Z
 ---------------------------------------------------------------------
      1         -1           0        0.000000    0.000000    0.000000
      2          7           0        0.000000    0.000000    0.960400
      3          1           0        0.968468    0.000000    1.219900
      4          1           0       -0.484234    0.838718    1.219900
      5          1           0       -0.484234   -0.838718    1.219900
 ---------------------------------------------------------------------
                    Distance matrix (angstroms):
                    1          2          3          4          5
     1  X    0.000000
     2  N    0.960400   0.000000
     3  H    1.557590   1.002632   0.000000
     4  H    1.557590   1.002632   1.677436   0.000000
     5  H    1.557590   1.002632   1.677436   1.677436   0.000000
 Stoichiometry    H3N
 Framework group  C3V[C3(N),3SGV(H)]
 Deg. of freedom     2
 Full point group                 C3V     NOp   6
 Largest Abelian subgroup         CS      NOp   2
 Largest concise Abelian subgroup CS      NOp   2
                         Standard orientation:                         
 ---------------------------------------------------------------------
 Center     Atomic      Atomic             Coordinates (Angstroms)
 Number     Number       Type             X           Y           Z
 ---------------------------------------------------------------------
      1          7           0        0.000000    0.000000    0.077850
      2          1           0        0.000000    0.968468   -0.181650
      3          1           0        0.838718   -0.484234   -0.181650
      4          1           0       -0.838718   -0.484234   -0.181650
 ---------------------------------------------------------------------
 Rotational constants (GHZ):    318.7802314    318.7802314    178.2132974
 Standard basis: 6-31G(d,p) (6D, 7F)
 There are    20 symmetry adapted basis functions of A'  symmetry.
 There are    10 symmetry adapted basis functions of A"  symmetry.
 Integral buffers will be    131072 words long.
 Raffenetti 1 integral format.
 Two-electron integral symmetry is turned on.
    30 basis functions,    49 primitive gaussians,    30 cartesian basis functions
     5 alpha electrons        5 beta electrons
       nuclear repulsion energy        12.0299529724 Hartrees.
 NAtoms=    4 NActive=    4 NUniq=    2 SFac= 4.00D+00 NAtFMM=   60 NAOKFM=F Big=F
 One-electron integrals computed using PRISM.
 NBasis=    30 RedAO= T  NBF=    20    10
 NBsUse=    30 1.00D-06 NBFU=    20    10
 Initial guess read from the read-write file.
 B after Tr=     0.000000    0.000000    0.000000
         Rot=    1.000000    0.000000    0.000000    0.000000 Ang=   0.00 deg.
 Initial guess orbital symmetries:
       Occupied  (A1) (A1) (E) (E) (A1)
       Virtual   (A1) (E) (E) (E) (E) (A1) (A1) (E) (E) (A1) (E)
                 (E) (A1) (A2) (E) (E) (E) (E) (A1) (E) (E) (A1)
                 (E) (E) (A1)
 Requested convergence on RMS density matrix=1.00D-08 within 128 cycles.
 Requested convergence on MAX density matrix=1.00D-06.
 Requested convergence on             energy=1.00D-06.
 No special actions if energy rises.
 Keep R1 ints in memory in canonical form, NReq=949711.
 SCF Done:  E(RHF) =  -56.1932431032     A.U. after    8 cycles
             Convg  =    0.9302D-08             -V/T =  2.0025
 ExpMin= 1.61D-01 ExpMax= 4.17D+03 ExpMxC= 6.27D+02 IAcc=3 IRadAn=         5 AccDes= 0.00D+00
 HarFok:  IExCor=  205 AccDes= 0.00D+00 IRadAn=         5 IDoV=-2
 ScaDFX=  1.000000  1.000000  1.000000  1.000000
 Range of M.O.s used for correlation:     2    30
 NBasis=    30 NAE=     5 NBE=     5 NFC=     1 NFV=     0
 NROrb=     29 NOA=     4 NOB=     4 NVA=    25 NVB=    25
 Fully direct method using O(ONN) memory.
 JobTyp=1 Pass  1:  I=   2 to   5 NPSUse=  1 ParTrn=F ParDer=F DoDerP=T.
 Spin components of T(2) and E(2):
     alpha-alpha T2 =       0.6079714056D-02 E2=     -0.2110227503D-01
     alpha-beta  T2 =       0.4064708043D-01 E2=     -0.1447755609D+00
     beta-beta   T2 =       0.6079714056D-02 E2=     -0.2110227503D-01
 ANorm=    0.1026063599D+01
 E2 =    -0.1869801109D+00 EUMP2 =    -0.56380223214072D+02
          IDoAtm=1111
          Differentiating once with respect to electric field.
                with respect to dipole field.
          Differentiating once with respect to nuclear coordinates.
          Keep R1 ints in memory in canonical form, NReq=928986.
          There are     1 degrees of freedom in the 1st order CPHF.  IDoFFX=0.
 LinEq1:  Iter=  0 NonCon=     1 RMS=3.66D-03 Max=1.80D-02
 AX will form     1 AO Fock derivatives at one time.
 LinEq1:  Iter=  1 NonCon=     1 RMS=1.09D-03 Max=8.02D-03
 LinEq1:  Iter=  2 NonCon=     1 RMS=2.33D-04 Max=1.23D-03
 LinEq1:  Iter=  3 NonCon=     1 RMS=3.16D-05 Max=1.84D-04
 LinEq1:  Iter=  4 NonCon=     1 RMS=3.79D-06 Max=2.46D-05
 LinEq1:  Iter=  5 NonCon=     1 RMS=3.93D-07 Max=1.61D-06
 LinEq1:  Iter=  6 NonCon=     1 RMS=4.39D-08 Max=2.20D-07
 LinEq1:  Iter=  7 NonCon=     1 RMS=4.20D-09 Max=3.59D-08
 LinEq1:  Iter=  8 NonCon=     1 RMS=3.21D-10 Max=1.50D-09
 LinEq1:  Iter=  9 NonCon=     0 RMS=1.82D-11 Max=7.63D-11
 Linear equations converged to 1.000D-10 1.000D-09 after     9 iterations.
 End of Minotr Frequency-dependent properties file   721 does not exist.
 End of Minotr Frequency-dependent properties file   722 does not exist.
 Calling FoFJK, ICntrl=      2127 FMM=F ISym2X=1 I1Cent= 0 IOpClX= 0 NMat=1 NMatS=1 NMatT=0.
 ***** Axes restored to original set *****
 -------------------------------------------------------------------
 Center     Atomic                   Forces (Hartrees/Bohr)
 Number     Number              X              Y              Z
 -------------------------------------------------------------------
      1        7           0.000000000    0.000000000   -0.018922992
      2        1          -0.001364693    0.000000000    0.006307664
      3        1           0.000682346   -0.001181858    0.006307664
      4        1           0.000682346    0.001181858    0.006307664
 -------------------------------------------------------------------
 Cartesian Forces:  Max     0.018922992 RMS     0.006344464
 -----------------------------------------------------------------------------------------------
                       Internal Coordinate Forces (Hartree/Bohr or radian)
  Cent   Atom   N1       Length/X         N2         Alpha/Y        N3         Beta/Z          J
 -----------------------------------------------------------------------------------------------
         X 
      1  N        1   0.000000(     1)
      2  H        2   0.000314(     2)      1   0.012213(     5)
      3  H        2   0.000314(     3)      1   0.012213(     6)      3   0.000000(     8)     0
      4  H        2   0.000314(     4)      1   0.012213(     7)      4   0.000000(     9)     0
 -----------------------------------------------------------------------------------------------
 Internal  Forces:  Max     0.012213129 RMS     0.007053589

 GradGradGradGradGradGradGradGradGradGradGradGradGradGradGradGradGradGrad
 Berny optimization.
 Search for a local minimum.
 Step number   2 out of a maximum of   20
 All quantities printed in internal units (Hartrees-Bohrs-Radians)
 Update second derivatives using D2CorN and points    1    2
 DE= -6.72D-05 DEPred=-7.15D-05 R= 9.39D-01
 SS=  1.41D+00  RLast= 1.76D-02 DXNew= 5.0454D-01 5.2710D-02
 Trust test= 9.39D-01 RLast= 1.76D-02 DXMaxT set to 3.00D-01
 The second derivative matrix:
                         nxx2       hn3       hn4      dih4       hn5
           nxx2         0.00000
           hn3          0.00000   0.47347
           hn4          0.00000   0.01038   0.47347
           dih4         0.00000   0.00000   0.00000   0.24860
           hn5          0.00000   0.01038   0.01038   0.00000   0.47347
           dih5         0.00000   0.00000   0.00000   0.12430   0.00000
           hnxx3        0.00000  -0.00956  -0.00956   0.00000  -0.00956
           hnxx4        0.00000  -0.00956  -0.00956  -0.05769  -0.00956
           hnxx5        0.00000  -0.00956  -0.00956   0.05769  -0.00956
                         dih5      hnxx3     hnxx4     hnxx5
           dih5         0.24860
           hnxx3        0.05769   0.05963
           hnxx4       -0.05769   0.03286   0.05963
           hnxx5        0.00000   0.03286   0.03286   0.05963
 ITU=  1  0
     Eigenvalues ---    0.00000   0.12430   0.37291   0.46309   0.46309
     Eigenvalues ---    0.494221000.000001000.000001000.00000
 RFO step:  Lambda= 0.00000000D+00 EMin= 2.35088821D-16
 Quartic linear search produced a step of -0.06168.
 Maximum step size (   0.300) exceeded in Quadratic search.
    -- Step size scaled by   0.010
 Variable       Old X    -DE/DX   Delta X   Delta X   Delta X     New X
                                 (Linear)    (Quad)   (Total)
   nxx2       1.81489   0.00000   0.00000   0.30000   0.30000   2.11489
   hn3        1.89470   0.00031   0.00063   0.00000   0.00063   1.89533
   hn4        1.89470   0.00031   0.00063   0.00000   0.00063   1.89533
   dih4       2.09440   0.00000   0.00000   0.00000   0.00000   2.09440
   hn5        1.89470   0.00031   0.00063   0.00000   0.00063   1.89533
   dih5       2.09440   0.00000   0.00000   0.00000   0.00000   2.09440
  hnxx3       1.83260   0.01221   0.00000   0.00000   0.00000   1.83260
  hnxx4       1.83260   0.01221   0.00000   0.00000   0.00000   1.83260
  hnxx5       1.83260   0.01221   0.00000   0.00000   0.00000   1.83260
         Item               Value     Threshold  Converged?
 Maximum Force            0.000314     0.000450     YES
 RMS     Force            0.000222     0.000300     YES
 Maximum Displacement     0.300000     0.001800     NO 
 RMS     Displacement     0.100001     0.001200     NO 
 Predicted change in Energy=-2.998377D-07
 GradGradGradGradGradGradGradGradGradGradGradGradGradGradGradGradGradGrad

 ---------------------------------------------------------------------------------------------------
                            Z-MATRIX (ANGSTROMS AND DEGREES)
   CD    Cent   Atom    N1       Length/X        N2       Alpha/Y        N3        Beta/Z          J
 ---------------------------------------------------------------------------------------------------
      1         X 
      2      1  N        1   1.119153(     1)
      3      2  H        2   1.002963(     2)      1  105.000(     5)
      4      3  H        2   1.002963(     3)      1  105.000(     6)      3  120.000(     8)      0
      5      4  H        2   1.002963(     4)      1  105.000(     7)      4  120.000(     9)      0
 ---------------------------------------------------------------------------------------------------
                         Z-Matrix orientation:                         
 ---------------------------------------------------------------------
 Center     Atomic      Atomic             Coordinates (Angstroms)
 Number     Number       Type             X           Y           Z
 ---------------------------------------------------------------------
      1         -1           0        0.000000    0.000000    0.000000
      2          7           0        0.000000    0.000000    1.119153
      3          1           0        0.968788    0.000000    1.378739
      4          1           0       -0.484394    0.838995    1.378739
      5          1           0       -0.484394   -0.838995    1.378739
 ---------------------------------------------------------------------
                    Distance matrix (angstroms):
                    1          2          3          4          5
     1  X    0.000000
     2  N    1.119153   0.000000
     3  H    1.685073   1.002963   0.000000
     4  H    1.685073   1.002963   1.677990   0.000000
     5  H    1.685073   1.002963   1.677990   1.677990   0.000000
 Stoichiometry    H3N
 Framework group  C3V[C3(N),3SGV(H)]
 Deg. of freedom     2
 Full point group                 C3V     NOp   6
 Largest Abelian subgroup         CS      NOp   2
 Largest concise Abelian subgroup CS      NOp   2
                         Standard orientation:                         
 ---------------------------------------------------------------------
 Center     Atomic      Atomic             Coordinates (Angstroms)
 Number     Number       Type             X           Y           Z
 ---------------------------------------------------------------------
      1          7           0        0.000000    0.000000    0.077876
      2          1           0        0.000000    0.968788   -0.181710
      3          1           0        0.838995   -0.484394   -0.181710
      4          1           0       -0.838995   -0.484394   -0.181710
 ---------------------------------------------------------------------
 Rotational constants (GHZ):    318.5697815    318.5697815    178.0956459
 Standard basis: 6-31G(d,p) (6D, 7F)
 There are    20 symmetry adapted basis functions of A'  symmetry.
 There are    10 symmetry adapted basis functions of A"  symmetry.
 Integral buffers will be    131072 words long.
 Raffenetti 1 integral format.
 Two-electron integral symmetry is turned on.
    30 basis functions,    49 primitive gaussians,    30 cartesian basis functions
     5 alpha electrons        5 beta electrons
       nuclear repulsion energy        12.0259813956 Hartrees.
 NAtoms=    4 NActive=    4 NUniq=    2 SFac= 4.00D+00 NAtFMM=   60 NAOKFM=F Big=F
 One-electron integrals computed using PRISM.
 NBasis=    30 RedAO= T  NBF=    20    10
 NBsUse=    30 1.00D-06 NBFU=    20    10
 Initial guess read from the read-write file.
 B after Tr=     0.000000    0.000000    0.000000
         Rot=    1.000000    0.000000    0.000000    0.000000 Ang=   0.00 deg.
 Initial guess orbital symmetries:
       Occupied  (A1) (A1) (E) (E) (A1)
       Virtual   (A1) (E) (E) (E) (E) (A1) (A1) (E) (E) (A1) (E)
                 (E) (A1) (A2) (E) (E) (E) (E) (A1) (E) (E) (A1)
                 (E) (E) (A1)
 Harris functional with IExCor=  205 diagonalized for initial guess.
 ExpMin= 1.61D-01 ExpMax= 4.17D+03 ExpMxC= 6.27D+02 IAcc=1 IRadAn=         1 AccDes= 0.00D+00
 HarFok:  IExCor=  205 AccDes= 0.00D+00 IRadAn=         1 IDoV= 1
 ScaDFX=  1.000000  1.000000  1.000000  1.000000
 FoFCou: FMM=F IPFlag=           0 FMFlag=      100000 FMFlg1=           0
         NFxFlg=           0 DoJE=T BraDBF=F KetDBF=T FulRan=T
         Omega=  0.000000  0.000000  1.000000  0.000000  0.000000 ICntrl=     500 IOpCl=  0
         NMat0=    1 NMatS0=    1 NMatT0=    0 NMatD0=    1 NMtDS0=    0 NMtDT0=    0
         I1Cent=           4 NGrid=           0.
 Petite list used in FoFCou.
 Requested convergence on RMS density matrix=1.00D-08 within 128 cycles.
 Requested convergence on MAX density matrix=1.00D-06.
 Requested convergence on             energy=1.00D-06.
 No special actions if energy rises.
 Keep R1 ints in memory in canonical form, NReq=949711.
 SCF Done:  E(RHF) =  -56.1932271553     A.U. after    7 cycles
             Convg  =    0.9473D-08             -V/T =  2.0025
 ExpMin= 1.61D-01 ExpMax= 4.17D+03 ExpMxC= 6.27D+02 IAcc=3 IRadAn=         5 AccDes= 0.00D+00
 HarFok:  IExCor=  205 AccDes= 0.00D+00 IRadAn=         5 IDoV=-2
 ScaDFX=  1.000000  1.000000  1.000000  1.000000
 Range of M.O.s used for correlation:     2    30
 NBasis=    30 NAE=     5 NBE=     5 NFC=     1 NFV=     0
 NROrb=     29 NOA=     4 NOB=     4 NVA=    25 NVB=    25
 Fully direct method using O(ONN) memory.
 JobTyp=1 Pass  1:  I=   2 to   5 NPSUse=  1 ParTrn=F ParDer=F DoDerP=T.
 Spin components of T(2) and E(2):
     alpha-alpha T2 =       0.6081321889D-02 E2=     -0.2110312014D-01
     alpha-beta  T2 =       0.4066292671D-01 E2=     -0.1447901133D+00
     beta-beta   T2 =       0.6081321889D-02 E2=     -0.2110312014D-01
 ANorm=    0.1026072888D+01
 E2 =    -0.1869963535D+00 EUMP2 =    -0.56380223508795D+02
          IDoAtm=1111
          Differentiating once with respect to electric field.
                with respect to dipole field.
          Differentiating once with respect to nuclear coordinates.
          Keep R1 ints in memory in canonical form, NReq=928986.
          There are     1 degrees of freedom in the 1st order CPHF.  IDoFFX=0.
 LinEq1:  Iter=  0 NonCon=     1 RMS=3.66D-03 Max=1.80D-02
 AX will form     1 AO Fock derivatives at one time.
 LinEq1:  Iter=  1 NonCon=     1 RMS=1.09D-03 Max=8.03D-03
 LinEq1:  Iter=  2 NonCon=     1 RMS=2.34D-04 Max=1.24D-03
 LinEq1:  Iter=  3 NonCon=     1 RMS=3.17D-05 Max=1.85D-04
 LinEq1:  Iter=  4 NonCon=     1 RMS=3.81D-06 Max=2.47D-05
 LinEq1:  Iter=  5 NonCon=     1 RMS=3.94D-07 Max=1.62D-06
 LinEq1:  Iter=  6 NonCon=     1 RMS=4.41D-08 Max=2.21D-07
 LinEq1:  Iter=  7 NonCon=     1 RMS=4.19D-09 Max=3.58D-08
 LinEq1:  Iter=  8 NonCon=     1 RMS=3.20D-10 Max=1.49D-09
 LinEq1:  Iter=  9 NonCon=     0 RMS=1.82D-11 Max=7.61D-11
 Linear equations converged to 1.000D-10 1.000D-09 after     9 iterations.
 End of Minotr Frequency-dependent properties file   721 does not exist.
 End of Minotr Frequency-dependent properties file   722 does not exist.
 Calling FoFJK, ICntrl=      2127 FMM=F ISym2X=1 I1Cent= 0 IOpClX= 0 NMat=1 NMatS=1 NMatT=0.
 ***** Axes restored to original set *****
 -------------------------------------------------------------------
 Center     Atomic                   Forces (Hartrees/Bohr)
 Number     Number              X              Y              Z
 -------------------------------------------------------------------
      1        7           0.000000000    0.000000000   -0.018727492
      2        1          -0.001672685    0.000000000    0.006242497
      3        1           0.000836343   -0.001448588    0.006242497
      4        1           0.000836343    0.001448588    0.006242497
 -------------------------------------------------------------------
 Cartesian Forces:  Max     0.018727492 RMS     0.006298273
 -----------------------------------------------------------------------------------------------
                       Internal Coordinate Forces (Hartree/Bohr or radian)
  Cent   Atom   N1       Length/X         N2         Alpha/Y        N3         Beta/Z          J
 -----------------------------------------------------------------------------------------------
         X 
      1  N        1   0.000000(     1)
      2  H        2   0.000000(     2)      1   0.012249(     5)
      3  H        2   0.000000(     3)      1   0.012249(     6)      3   0.000000(     8)     0
      4  H        2   0.000000(     4)      1   0.012249(     7)      4   0.000000(     9)     0
 -----------------------------------------------------------------------------------------------
 Internal  Forces:  Max     0.012248944 RMS     0.007071931

 GradGradGradGradGradGradGradGradGradGradGradGradGradGradGradGradGradGrad
 Berny optimization.
 Search for a local minimum.
 Step number   3 out of a maximum of   20
 All quantities printed in internal units (Hartrees-Bohrs-Radians)
 Update second derivatives using D2CorN and points    1    2    3
 DE= -2.95D-07 DEPred=-3.00D-07 R= 9.83D-01
 Trust test= 9.83D-01 RLast= 3.00D-01 DXMaxT set to 3.00D-01
 The second derivative matrix:
                         nxx2       hn3       hn4      dih4       hn5
           nxx2         0.00000
           hn3          0.00001   0.47347
           hn4          0.00001   0.01038   0.47347
           dih4         0.00000   0.00000   0.00000   0.24860
           hn5          0.00001   0.01038   0.01038   0.00000   0.47347
           dih5         0.00000   0.00000   0.00000   0.12430   0.00000
           hnxx3        0.00020  -0.00957  -0.00957   0.00000  -0.00957
           hnxx4        0.00020  -0.00957  -0.00957  -0.05769  -0.00957
           hnxx5        0.00020  -0.00957  -0.00957   0.05769  -0.00957
                         dih5      hnxx3     hnxx4     hnxx5
           dih5         0.24860
           hnxx3        0.05769   0.05963
           hnxx4       -0.05769   0.03286   0.05963
           hnxx5        0.00000   0.03286   0.03286   0.05963
 ITU=  0  1  0
     Eigenvalues ---    0.00000   0.12430   0.37291   0.46309   0.46309
     Eigenvalues ---    0.494221000.000001000.000001000.00000
 RFO step:  Lambda=-5.71826865D-08 EMin=-5.42024542D-08
 Mixed    1 eigenvectors in step.  Raw Step.Grad= -1.53D-13.
 RFO eigenvector is Hessian eigenvector with negative curvature.
 Taking step of  6.00D-01 in eigenvector direction(s).  Step.Grad=  1.53D-13.
 Quartic linear search produced a step of -0.00004.
 Maximum step size (   0.300) exceeded in Quadratic search.
    -- Step size scaled by   0.500
 Variable       Old X    -DE/DX   Delta X   Delta X   Delta X     New X
                                 (Linear)    (Quad)   (Total)
   nxx2       2.11489   0.00000  -0.00001   0.30000   0.29999   2.41488
   hn3        1.89533   0.00000   0.00000  -0.00001  -0.00001   1.89532
   hn4        1.89533   0.00000   0.00000  -0.00001  -0.00001   1.89532
   dih4       2.09440   0.00000   0.00000   0.00000   0.00000   2.09440
   hn5        1.89533   0.00000   0.00000  -0.00001  -0.00001   1.89532
   dih5       2.09440   0.00000   0.00000   0.00000   0.00000   2.09440
  hnxx3       1.83260   0.01225   0.00000   0.00000   0.00000   1.83260
  hnxx4       1.83260   0.01225   0.00000   0.00000   0.00000   1.83260
  hnxx5       1.83260   0.01225   0.00000   0.00000   0.00000   1.83260
         Item               Value     Threshold  Converged?
 Maximum Force            0.000000     0.000450     YES
 RMS     Force            0.000000     0.000300     YES
 Maximum Displacement     0.299988     0.001800     NO 
 RMS     Displacement     0.099996     0.001200     NO 
 Predicted change in Energy=-2.439209D-09
 Optimization completed on the basis of negligible forces.
    -- Stationary point found.
                       ----------------------------
                       !   Optimized Parameters   !
                       ! (Angstroms and Degrees)  !
 ----------------------                            ----------------------
 !      Name          Value   Derivative information (Atomic Units)     !
 ------------------------------------------------------------------------
 !      nxx2         1.1192   -DE/DX =    0.0                           !
 !       hn3         1.003    -DE/DX =    0.0                           !
 !       hn4         1.003    -DE/DX =    0.0                           !
 !      dih4       120.0      -DE/DX =    0.0                           !
 !       hn5         1.003    -DE/DX =    0.0                           !
 !      dih5       120.0      -DE/DX =    0.0                           !
 !      hnxx3      105.0      -DE/DX =    0.0122                        !
 !      hnxx4      105.0      -DE/DX =    0.0122                        !
 !      hnxx5      105.0      -DE/DX =    0.0122                        !
 ------------------------------------------------------------------------
 GradGradGradGradGradGradGradGradGradGradGradGradGradGradGradGradGradGrad

 ---------------------------------------------------------------------------------------------------
                            Z-MATRIX (ANGSTROMS AND DEGREES)
   CD    Cent   Atom    N1       Length/X        N2       Alpha/Y        N3        Beta/Z          J
 ---------------------------------------------------------------------------------------------------
      1         X 
      2      1  N        1   1.119153(     1)
      3      2  H        2   1.002963(     2)      1  105.000(     5)
      4      3  H        2   1.002963(     3)      1  105.000(     6)      3  120.000(     8)      0
      5      4  H        2   1.002963(     4)      1  105.000(     7)      4  120.000(     9)      0
 ---------------------------------------------------------------------------------------------------
                         Z-Matrix orientation:                         
 ---------------------------------------------------------------------
 Center     Atomic      Atomic             Coordinates (Angstroms)
 Number     Number       Type             X           Y           Z
 ---------------------------------------------------------------------
      1         -1           0        0.000000    0.000000    0.000000
      2          7           0        0.000000    0.000000    1.119153
      3          1           0        0.968788    0.000000    1.378739
      4          1           0       -0.484394    0.838995    1.378739
      5          1           0       -0.484394   -0.838995    1.378739
 ---------------------------------------------------------------------
                    Distance matrix (angstroms):
                    1          2          3          4          5
     1  X    0.000000
     2  N    1.119153   0.000000
     3  H    1.685073   1.002963   0.000000
     4  H    1.685073   1.002963   1.677990   0.000000
     5  H    1.685073   1.002963   1.677990   1.677990   0.000000
 Stoichiometry    H3N
 Framework group  C3V[C3(N),3SGV(H)]
 Deg. of freedom     2
 Full point group                 C3V     NOp   6
 Largest Abelian subgroup         CS      NOp   2
 Largest concise Abelian subgroup CS      NOp   2
                         Standard orientation:                         
 ---------------------------------------------------------------------
 Center     Atomic      Atomic             Coordinates (Angstroms)
 Number     Number       Type             X           Y           Z
 ---------------------------------------------------------------------
      1          7           0        0.000000    0.000000    0.077876
      2          1           0        0.000000    0.968788   -0.181710
      3          1           0        0.838995   -0.484394   -0.181710
      4          1           0       -0.838995   -0.484394   -0.181710
 ---------------------------------------------------------------------
 Rotational constants (GHZ):    318.5697815    318.5697815    178.0956459

 **********************************************************************

            Population analysis using the SCF density.

 **********************************************************************

 Orbital symmetries:
       Occupied  (A1) (A1) (E) (E) (A1)
       Virtual   (A1) (E) (E) (E) (E) (A1) (A1) (E) (E) (A1) (E)
                 (E) (A1) (A2) (E) (E) (E) (E) (A1) (E) (E) (A1)
                 (E) (E) (A1)
 The electronic state is 1-A1.
 Alpha  occ. eigenvalues --  -15.52788  -1.12497  -0.63099  -0.63099  -0.39938
 Alpha virt. eigenvalues --    0.22675   0.32727   0.32727   0.91172   0.91172
 Alpha virt. eigenvalues --    0.96770   1.09392   1.16960   1.16960   1.31782
 Alpha virt. eigenvalues --    1.72151   1.72151   2.27136   2.36265   2.47934
 Alpha virt. eigenvalues --    2.47934   2.82737   2.82737   2.93372   3.34001
 Alpha virt. eigenvalues --    3.34001   3.66462   3.82268   3.82268   4.37599
          Condensed to atoms (all electrons):
              1          2          3          4
     1  N    6.733390   0.363566   0.363566   0.363566
     2  H    0.363566   0.414304  -0.026283  -0.026283
     3  H    0.363566  -0.026283   0.414304  -0.026283
     4  H    0.363566  -0.026283  -0.026283   0.414304
 Mulliken atomic charges:
              1
     1  N   -0.824087
     2  H    0.274696
     3  H    0.274696
     4  H    0.274696
 Sum of Mulliken atomic charges =   0.00000
 Mulliken charges with hydrogens summed into heavy atoms:
              1
     1  N    0.000000
 Sum of Mulliken charges with hydrogens summed into heavy atoms =   0.00000
 Electronic spatial extent (au):  <R**2>=             25.8357
 Charge=              0.0000 electrons
 Dipole moment (field-independent basis, Debye):
    X=              0.0000    Y=              0.0000    Z=             -1.3941  Tot=              1.3941
 Quadrupole moment (field-independent basis, Debye-Ang):
   XX=             -5.7416   YY=             -5.7416   ZZ=             -9.0627
   XY=              0.0000   XZ=              0.0000   YZ=              0.0000
 Traceless Quadrupole moment (field-independent basis, Debye-Ang):
   XX=              1.1070   YY=              1.1070   ZZ=             -2.2140
   XY=              0.0000   XZ=              0.0000   YZ=              0.0000
 Octapole moment (field-independent basis, Debye-Ang**2):
  XXX=              0.0000  YYY=              1.0754  ZZZ=             -1.2484  XYY=              0.0000
  XXY=             -1.0754  XXZ=             -0.7142  XZZ=              0.0000  YZZ=              0.0000
  YYZ=             -0.7142  XYZ=              0.0000
 Hexadecapole moment (field-independent basis, Debye-Ang**3):
 XXXX=             -8.8806 YYYY=             -8.8806 ZZZZ=             -9.1672 XXXY=              0.0000
 XXXZ=              0.0000 YYYX=              0.0000 YYYZ=             -0.2698 ZZZX=              0.0000
 ZZZY=              0.0000 XXYY=             -2.9602 XXZZ=             -3.2414 YYZZ=             -3.2414
 XXYZ=              0.2698 YYXZ=              0.0000 ZZXY=              0.0000
 N-N= 1.202598139562D+01 E-N=-1.558626472444D+02  KE= 5.605266761661D+01
 Symmetry A'   KE= 5.346631214108D+01
 Symmetry A"   KE= 2.586355475534D+00
 1\1\GINC-NISER-THINKCENTRE-M93P\POpt\RMP2-FC\6-31G(d,p)\H3N1\STUDENT\0
 4-Mar-2021\1\\# mp2/6-31g** opt=z-matrix\\si\\0,1\X\N,1,nxx2\H,2,hn3,1
 ,hnxx3\H,2,hn4,1,hnxx4,3,dih4,0\H,2,hn5,1,hnxx5,4,dih5,0\\nxx2=1.11915
 316\hn3=1.00296313\hn4=1.00296313\dih4=120.\hn5=1.00296313\dih5=120.\h
 nxx3=105.\hnxx4=105.\hnxx5=105.\\Version=EM64L-G09RevC.01\State=1-A1\H
 F=-56.1932272\MP2=-56.3802235\RMSD=9.473e-09\RMSF=6.298e-03\Dipole=0.,
 0.,0.5387614\PG=C03V [C3(N1),3SGV(H1)]\\@


 Time has a wonderful way of weeding out the trivial.
                                -- Richard Ben Sapir
 Job cpu time:  0 days  0 hours  0 minutes  3.0 seconds.
 File lengths (MBytes):  RWF=      5 Int=      0 D2E=      0 Chk=      1 Scr=      1
 Normal termination of Gaussian 09 at Thu Mar  4 15:55:17 2021.
