 Entering Gaussian System, Link 0=g09
 Input=m110.com
 Output=m110.log
 Initial command:
 /home/student/g09/l1.exe /home/student/singh/4/a/Gau-30803.inp -scrdir=/home/student/singh/4/a/
 Entering Link 1 = /home/student/g09/l1.exe PID=     30805.
  
 Copyright (c) 1988,1990,1992,1993,1995,1998,2003,2009,2011,
            Gaussian, Inc.  All Rights Reserved.
  
 This is part of the Gaussian(R) 09 program.  It is based on
 the Gaussian(R) 03 system (copyright 2003, Gaussian, Inc.),
 the Gaussian(R) 98 system (copyright 1998, Gaussian, Inc.),
 the Gaussian(R) 94 system (copyright 1995, Gaussian, Inc.),
 the Gaussian 92(TM) system (copyright 1992, Gaussian, Inc.),
 the Gaussian 90(TM) system (copyright 1990, Gaussian, Inc.),
 the Gaussian 88(TM) system (copyright 1988, Gaussian, Inc.),
 the Gaussian 86(TM) system (copyright 1986, Carnegie Mellon
 University), and the Gaussian 82(TM) system (copyright 1983,
 Carnegie Mellon University). Gaussian is a federally registered
 trademark of Gaussian, Inc.
  
 This software contains proprietary and confidential information,
 including trade secrets, belonging to Gaussian, Inc.
  
 This software is provided under written license and may be
 used, copied, transmitted, or stored only in accord with that
 written license.
  
 The following legend is applicable only to US Government
 contracts under FAR:
  
                    RESTRICTED RIGHTS LEGEND
  
 Use, reproduction and disclosure by the US Government is
 subject to restrictions as set forth in subparagraphs (a)
 and (c) of the Commercial Computer Software - Restricted
 Rights clause in FAR 52.227-19.
  
 Gaussian, Inc.
 340 Quinnipiac St., Bldg. 40, Wallingford CT 06492
  
  
 ---------------------------------------------------------------
 Warning -- This program may not be used in any manner that
 competes with the business of Gaussian, Inc. or will provide
 assistance to any competitor of Gaussian, Inc.  The licensee
 of this program is prohibited from giving any competitor of
 Gaussian, Inc. access to this program.  By using this program,
 the user acknowledges that Gaussian, Inc. is engaged in the
 business of creating and licensing software in the field of
 computational chemistry and represents and warrants to the
 licensee that it is not a competitor of Gaussian, Inc. and that
 it will not use this program in any manner prohibited above.
 ---------------------------------------------------------------
  

 Cite this work as:
 Gaussian 09, Revision C.01,
 M. J. Frisch, G. W. Trucks, H. B. Schlegel, G. E. Scuseria, 
 M. A. Robb, J. R. Cheeseman, G. Scalmani, V. Barone, B. Mennucci, 
 G. A. Petersson, H. Nakatsuji, M. Caricato, X. Li, H. P. Hratchian, 
 A. F. Izmaylov, J. Bloino, G. Zheng, J. L. Sonnenberg, M. Hada, 
 M. Ehara, K. Toyota, R. Fukuda, J. Hasegawa, M. Ishida, T. Nakajima, 
 Y. Honda, O. Kitao, H. Nakai, T. Vreven, J. A. Montgomery, Jr., 
 J. E. Peralta, F. Ogliaro, M. Bearpark, J. J. Heyd, E. Brothers, 
 K. N. Kudin, V. N. Staroverov, T. Keith, R. Kobayashi, J. Normand, 
 K. Raghavachari, A. Rendell, J. C. Burant, S. S. Iyengar, J. Tomasi, 
 M. Cossi, N. Rega, J. M. Millam, M. Klene, J. E. Knox, J. B. Cross, 
 V. Bakken, C. Adamo, J. Jaramillo, R. Gomperts, R. E. Stratmann, 
 O. Yazyev, A. J. Austin, R. Cammi, C. Pomelli, J. W. Ochterski, 
 R. L. Martin, K. Morokuma, V. G. Zakrzewski, G. A. Voth, 
 P. Salvador, J. J. Dannenberg, S. Dapprich, A. D. Daniels, 
 O. Farkas, J. B. Foresman, J. V. Ortiz, J. Cioslowski, 
 and D. J. Fox, Gaussian, Inc., Wallingford CT, 2010.
 
 ******************************************
 Gaussian 09:  EM64L-G09RevC.01 23-Sep-2011
                 4-Mar-2021 
 ******************************************
 --------------------------
 # mp2/6-31g** opt=z-matrix
 --------------------------
 1/10=7,18=40,38=1/1,3;
 2/12=2,17=6,18=5,29=3,40=1/2;
 3/5=1,6=6,7=101,11=9,16=1,25=1,30=1,71=1/1,2,3;
 4//1;
 5/5=2,38=5/2;
 8/6=4,10=2/1;
 9/15=2,16=-3/6;
 10/5=1/2;
 6/7=2,8=2,9=2,10=2/1;
 7/12=2,29=1/1,2,3,16;
 1/10=7,18=40/3(2);
 2/29=3/2;
 99//99;
 2/29=3/2;
 3/5=1,6=6,7=101,11=9,16=1,25=1,30=1,71=1/1,2,3;
 4/5=5,16=3/1;
 5/5=2,38=5/2;
 8/6=4,10=2/1;
 9/15=2,16=-3/6;
 10/5=1/2;
 7/12=2/1,2,3,16;
 1/18=40/3(-8);
 2/29=3/2;
 6/7=2,8=2,9=2,10=2/1;
 99//99;
 --
 si
 --
 Charge =  0 Multiplicity = 1
 Symbolic Z-Matrix:
 xx
 n                    1    nxx2
 h                    2    hn3      1    hnxx3
 h                    2    hn4      1    hnxx4    3    dih4     0
 h                    2    hn5      1    hnxx5    4    dih5     0
       Variables:
  nxx2                  0.9604                   
  hn3                   1.008                    
  hn4                   1.008                    
  dih4                120.                       
  hn5                   1.008                    
  dih5                120.                       
       Constants:
  hnxx3               110.                       
  hnxx4               110.                       
  hnxx5               110.                       
 

 GradGradGradGradGradGradGradGradGradGradGradGradGradGradGradGradGradGrad
 Berny optimization.
 Initialization pass.
                       ----------------------------
                       !    Initial Parameters    !
                       ! (Angstroms and Degrees)  !
 ----------------------                            ----------------------
 !      Name          Value   Derivative information (Atomic Units)     !
 ------------------------------------------------------------------------
 !      nxx2         0.9604   estimate D2E/DX2                          !
 !       hn3         1.008    estimate D2E/DX2                          !
 !       hn4         1.008    estimate D2E/DX2                          !
 !      dih4       120.0      estimate D2E/DX2                          !
 !       hn5         1.008    estimate D2E/DX2                          !
 !      dih5       120.0      estimate D2E/DX2                          !
 !      hnxx3      110.0      Frozen                                    !
 !      hnxx4      110.0      Frozen                                    !
 !      hnxx5      110.0      Frozen                                    !
 ------------------------------------------------------------------------
 Trust Radius=3.00D-01 FncErr=1.00D-07 GrdErr=1.00D-07
 Number of steps in this run=     20 maximum allowed number of steps=    100.
 GradGradGradGradGradGradGradGradGradGradGradGradGradGradGradGradGradGrad

 ---------------------------------------------------------------------------------------------------
                            Z-MATRIX (ANGSTROMS AND DEGREES)
   CD    Cent   Atom    N1       Length/X        N2       Alpha/Y        N3        Beta/Z          J
 ---------------------------------------------------------------------------------------------------
      1         X 
      2      1  N        1   0.960400(     1)
      3      2  H        2   1.008000(     2)      1  110.000(     5)
      4      3  H        2   1.008000(     3)      1  110.000(     6)      3  120.000(     8)      0
      5      4  H        2   1.008000(     4)      1  110.000(     7)      4  120.000(     9)      0
 ---------------------------------------------------------------------------------------------------
                         Z-Matrix orientation:                         
 ---------------------------------------------------------------------
 Center     Atomic      Atomic             Coordinates (Angstroms)
 Number     Number       Type             X           Y           Z
 ---------------------------------------------------------------------
      1         -1           0        0.000000    0.000000    0.000000
      2          7           0        0.000000    0.000000    0.960400
      3          1           0        0.947210    0.000000    1.305156
      4          1           0       -0.473605    0.820308    1.305156
      5          1           0       -0.473605   -0.820308    1.305156
 ---------------------------------------------------------------------
                    Distance matrix (angstroms):
                    1          2          3          4          5
     1  X    0.000000
     2  N    0.960400   0.000000
     3  H    1.612650   1.008000   0.000000
     4  H    1.612650   1.008000   1.640616   0.000000
     5  H    1.612650   1.008000   1.640616   1.640616   0.000000
 Stoichiometry    H3N
 Framework group  C3V[C3(N),3SGV(H)]
 Deg. of freedom     2
 Full point group                 C3V     NOp   6
 Largest Abelian subgroup         CS      NOp   2
 Largest concise Abelian subgroup CS      NOp   2
                         Standard orientation:                         
 ---------------------------------------------------------------------
 Center     Atomic      Atomic             Coordinates (Angstroms)
 Number     Number       Type             X           Y           Z
 ---------------------------------------------------------------------
      1          7           0        0.000000    0.000000    0.103427
      2          1           0        0.000000    0.947210   -0.241329
      3          1           0        0.820308   -0.473605   -0.241329
      4          1           0       -0.820308   -0.473605   -0.241329
 ---------------------------------------------------------------------
 Rotational constants (GHZ):    305.9399860    305.9399860    186.3022505
 Standard basis: 6-31G(d,p) (6D, 7F)
 There are    20 symmetry adapted basis functions of A'  symmetry.
 There are    10 symmetry adapted basis functions of A"  symmetry.
 Integral buffers will be    131072 words long.
 Raffenetti 1 integral format.
 Two-electron integral symmetry is turned on.
    30 basis functions,    49 primitive gaussians,    30 cartesian basis functions
     5 alpha electrons        5 beta electrons
       nuclear repulsion energy        11.9921687374 Hartrees.
 NAtoms=    4 NActive=    4 NUniq=    2 SFac= 4.00D+00 NAtFMM=   60 NAOKFM=F Big=F
 One-electron integrals computed using PRISM.
 NBasis=    30 RedAO= T  NBF=    20    10
 NBsUse=    30 1.00D-06 NBFU=    20    10
 Harris functional with IExCor=  205 diagonalized for initial guess.
 ExpMin= 1.61D-01 ExpMax= 4.17D+03 ExpMxC= 6.27D+02 IAcc=1 IRadAn=         1 AccDes= 0.00D+00
 HarFok:  IExCor=  205 AccDes= 0.00D+00 IRadAn=         1 IDoV= 1
 ScaDFX=  1.000000  1.000000  1.000000  1.000000
 FoFCou: FMM=F IPFlag=           0 FMFlag=      100000 FMFlg1=           0
         NFxFlg=           0 DoJE=T BraDBF=F KetDBF=T FulRan=T
         Omega=  0.000000  0.000000  1.000000  0.000000  0.000000 ICntrl=     500 IOpCl=  0
         NMat0=    1 NMatS0=    1 NMatT0=    0 NMatD0=    1 NMtDS0=    0 NMtDT0=    0
         I1Cent=           4 NGrid=           0.
 Petite list used in FoFCou.
 Initial guess orbital symmetries:
       Occupied  (A1) (A1) (E) (E) (A1)
       Virtual   (A1) (E) (E) (A1) (E) (E) (E) (E) (A1) (A1) (E)
                 (E) (A1) (A2) (E) (E) (E) (E) (A1) (E) (E) (A1)
                 (E) (E) (A1)
 The electronic state of the initial guess is 1-A1.
 Requested convergence on RMS density matrix=1.00D-08 within 128 cycles.
 Requested convergence on MAX density matrix=1.00D-06.
 Requested convergence on             energy=1.00D-06.
 No special actions if energy rises.
 Keep R1 ints in memory in canonical form, NReq=949711.
 SCF Done:  E(RHF) =  -56.1952302848     A.U. after   10 cycles
             Convg  =    0.2604D-08             -V/T =  2.0024
 ExpMin= 1.61D-01 ExpMax= 4.17D+03 ExpMxC= 6.27D+02 IAcc=3 IRadAn=         5 AccDes= 0.00D+00
 HarFok:  IExCor=  205 AccDes= 0.00D+00 IRadAn=         5 IDoV=-2
 ScaDFX=  1.000000  1.000000  1.000000  1.000000
 Range of M.O.s used for correlation:     2    30
 NBasis=    30 NAE=     5 NBE=     5 NFC=     1 NFV=     0
 NROrb=     29 NOA=     4 NOB=     4 NVA=    25 NVB=    25
 Fully direct method using O(ONN) memory.
 JobTyp=1 Pass  1:  I=   2 to   5 NPSUse=  1 ParTrn=F ParDer=F DoDerP=T.
 Spin components of T(2) and E(2):
     alpha-alpha T2 =       0.6099182559D-02 E2=     -0.2106081168D-01
     alpha-beta  T2 =       0.4114397085D-01 E2=     -0.1454106968D+00
     beta-beta   T2 =       0.6099182559D-02 E2=     -0.2106081168D-01
 ANorm=    0.1026324674D+01
 E2 =    -0.1875323201D+00 EUMP2 =    -0.56382762604891D+02
          IDoAtm=1111
          Differentiating once with respect to electric field.
                with respect to dipole field.
          Differentiating once with respect to nuclear coordinates.
          Keep R1 ints in memory in canonical form, NReq=928986.
          There are     1 degrees of freedom in the 1st order CPHF.  IDoFFX=0.
 LinEq1:  Iter=  0 NonCon=     1 RMS=3.80D-03 Max=1.88D-02
 AX will form     1 AO Fock derivatives at one time.
 LinEq1:  Iter=  1 NonCon=     1 RMS=1.17D-03 Max=8.41D-03
 LinEq1:  Iter=  2 NonCon=     1 RMS=2.95D-04 Max=1.93D-03
 LinEq1:  Iter=  3 NonCon=     1 RMS=3.67D-05 Max=1.90D-04
 LinEq1:  Iter=  4 NonCon=     1 RMS=3.91D-06 Max=2.64D-05
 LinEq1:  Iter=  5 NonCon=     1 RMS=4.01D-07 Max=1.54D-06
 LinEq1:  Iter=  6 NonCon=     1 RMS=4.84D-08 Max=2.19D-07
 LinEq1:  Iter=  7 NonCon=     1 RMS=4.01D-09 Max=2.23D-08
 LinEq1:  Iter=  8 NonCon=     1 RMS=2.70D-10 Max=1.12D-09
 LinEq1:  Iter=  9 NonCon=     0 RMS=1.41D-11 Max=7.76D-11
 Linear equations converged to 1.000D-10 1.000D-09 after     9 iterations.
 End of Minotr Frequency-dependent properties file   721 does not exist.
 End of Minotr Frequency-dependent properties file   722 does not exist.

 **********************************************************************

            Population analysis using the SCF density.

 **********************************************************************

 Orbital symmetries:
       Occupied  (A1) (A1) (E) (E) (A1)
       Virtual   (A1) (E) (E) (E) (E) (A1) (A1) (E) (E) (A1) (E)
                 (E) (A1) (A2) (E) (E) (E) (E) (A1) (E) (E) (A1)
                 (E) (E) (A1)
 The electronic state is 1-A1.
 Alpha  occ. eigenvalues --  -15.53477  -1.13273  -0.62440  -0.62440  -0.41373
 Alpha virt. eigenvalues --    0.22355   0.32456   0.32456   0.89941   0.89941
 Alpha virt. eigenvalues --    0.96453   1.13831   1.16204   1.16204   1.33473
 Alpha virt. eigenvalues --    1.70136   1.70136   2.18476   2.38522   2.52996
 Alpha virt. eigenvalues --    2.52996   2.73666   2.73666   3.05616   3.32965
 Alpha virt. eigenvalues --    3.32965   3.62341   3.81492   3.81492   4.33892
          Condensed to atoms (all electrons):
              1          2          3          4
     1  N    6.728295   0.357146   0.357146   0.357146
     2  H    0.357146   0.432297  -0.028010  -0.028010
     3  H    0.357146  -0.028010   0.432297  -0.028010
     4  H    0.357146  -0.028010  -0.028010   0.432297
 Mulliken atomic charges:
              1
     1  N   -0.799733
     2  H    0.266578
     3  H    0.266578
     4  H    0.266578
 Sum of Mulliken atomic charges =   0.00000
 Mulliken charges with hydrogens summed into heavy atoms:
              1
     1  N    0.000000
 Sum of Mulliken charges with hydrogens summed into heavy atoms =   0.00000
 Electronic spatial extent (au):  <R**2>=             25.9889
 Charge=              0.0000 electrons
 Dipole moment (field-independent basis, Debye):
    X=              0.0000    Y=              0.0000    Z=             -1.7553  Tot=              1.7553
 Quadrupole moment (field-independent basis, Debye-Ang):
   XX=             -5.9647   YY=             -5.9647   ZZ=             -8.8994
   XY=              0.0000   XZ=              0.0000   YZ=              0.0000
 Traceless Quadrupole moment (field-independent basis, Debye-Ang):
   XX=              0.9782   YY=              0.9782   ZZ=             -1.9565
   XY=              0.0000   XZ=              0.0000   YZ=              0.0000
 Octapole moment (field-independent basis, Debye-Ang**2):
  XXX=              0.0000  YYY=              0.9433  ZZZ=             -1.5891  XYY=              0.0000
  XXY=             -0.9433  XXZ=             -0.8853  XZZ=              0.0000  YZZ=              0.0000
  YYZ=             -0.8853  XYZ=              0.0000
 Hexadecapole moment (field-independent basis, Debye-Ang**3):
 XXXX=             -9.1781 YYYY=             -9.1781 ZZZZ=             -9.5123 XXXY=              0.0000
 XXXZ=              0.0000 YYYX=              0.0000 YYYZ=             -0.3253 ZZZX=              0.0000
 ZZZY=              0.0000 XXYY=             -3.0594 XXZZ=             -3.2278 YYZZ=             -3.2278
 XXYZ=              0.3253 YYXZ=              0.0000 ZZXY=              0.0000
 N-N= 1.199216873737D+01 E-N=-1.557751390104D+02  KE= 5.606039777027D+01
 Symmetry A'   KE= 5.347453218773D+01
 Symmetry A"   KE= 2.585865582542D+00
 Calling FoFJK, ICntrl=      2127 FMM=F ISym2X=1 I1Cent= 0 IOpClX= 0 NMat=1 NMatS=1 NMatT=0.
 ***** Axes restored to original set *****
 -------------------------------------------------------------------
 Center     Atomic                   Forces (Hartrees/Bohr)
 Number     Number              X              Y              Z
 -------------------------------------------------------------------
      1        7           0.000000000    0.000000000   -0.009639299
      2        1          -0.000323632    0.000000000    0.003213100
      3        1           0.000161816   -0.000280274    0.003213100
      4        1           0.000161816    0.000280274    0.003213100
 -------------------------------------------------------------------
 Cartesian Forces:  Max     0.009639299 RMS     0.003217172
 -----------------------------------------------------------------------------------------------
                       Internal Coordinate Forces (Hartree/Bohr or radian)
  Cent   Atom   N1       Length/X         N2         Alpha/Y        N3         Beta/Z          J
 -----------------------------------------------------------------------------------------------
         X 
      1  N        1   0.000000(     1)
      2  H        2   0.000795(     2)      1   0.005962(     5)
      3  H        2   0.000795(     3)      1   0.005962(     6)      3   0.000000(     8)     0
      4  H        2   0.000795(     4)      1   0.005962(     7)      4   0.000000(     9)     0
 -----------------------------------------------------------------------------------------------
 Internal  Forces:  Max     0.005962190 RMS     0.003472725

 GradGradGradGradGradGradGradGradGradGradGradGradGradGradGradGradGradGrad
 Berny optimization.
 Search for a local minimum.
 Step number   1 out of a maximum of   20
 All quantities printed in internal units (Hartrees-Bohrs-Radians)
 Second derivative matrix not updated -- first step.
 The second derivative matrix:
                         nxx2       hn3       hn4      dih4       hn5
           nxx2         0.00000
           hn3          0.00000   0.46309
           hn4          0.00000   0.00000   0.46309
           dih4         0.00000   0.00000   0.00000   0.20916
           hn5          0.00000   0.00000   0.00000   0.00000   0.46309
           dih5         0.00000   0.00000   0.00000   0.10458   0.00000
           hnxx3        0.00000   0.00000   0.00000   0.00000   0.00000
           hnxx4        0.00000   0.00000   0.00000  -0.06593   0.00000
           hnxx5        0.00000   0.00000   0.00000   0.06593   0.00000
                         dih5      hnxx3     hnxx4     hnxx5
           dih5         0.20916
           hnxx3        0.06593   0.08411
           hnxx4       -0.06593   0.04255   0.08411
           hnxx5        0.00000   0.04255   0.04255   0.08411
 ITU=  0
     Eigenvalues ---    0.00000   0.10458   0.31375   0.46309   0.46309
     Eigenvalues ---    0.463091000.000001000.000001000.00000
 RFO step:  Lambda=-4.10079956D-06 EMin=-1.93638508D-16
 Linear search not attempted -- first point.
 Variable       Old X    -DE/DX   Delta X   Delta X   Delta X     New X
                                 (Linear)    (Quad)   (Total)
   nxx2       1.81489   0.00000   0.00000   0.00000   0.00000   1.81489
   hn3        1.90484   0.00079   0.00000   0.00172   0.00172   1.90656
   hn4        1.90484   0.00079   0.00000   0.00172   0.00172   1.90656
   dih4       2.09440   0.00000   0.00000   0.00000   0.00000   2.09440
   hn5        1.90484   0.00079   0.00000   0.00172   0.00172   1.90656
   dih5       2.09440   0.00000   0.00000   0.00000   0.00000   2.09440
  hnxx3       1.91986   0.00596   0.00000   0.00000   0.00000   1.91986
  hnxx4       1.91986   0.00596   0.00000   0.00000   0.00000   1.91986
  hnxx5       1.91986   0.00596   0.00000   0.00000   0.00000   1.91986
         Item               Value     Threshold  Converged?
 Maximum Force            0.000795     0.000450     NO 
 RMS     Force            0.000562     0.000300     NO 
 Maximum Displacement     0.001716     0.001800     YES
 RMS     Displacement     0.000991     0.001200     YES
 Predicted change in Energy=-2.046321D-06
 GradGradGradGradGradGradGradGradGradGradGradGradGradGradGradGradGradGrad

 ---------------------------------------------------------------------------------------------------
                            Z-MATRIX (ANGSTROMS AND DEGREES)
   CD    Cent   Atom    N1       Length/X        N2       Alpha/Y        N3        Beta/Z          J
 ---------------------------------------------------------------------------------------------------
      1         X 
      2      1  N        1   0.960400(     1)
      3      2  H        2   1.008908(     2)      1  110.000(     5)
      4      3  H        2   1.008908(     3)      1  110.000(     6)      3  120.000(     8)      0
      5      4  H        2   1.008908(     4)      1  110.000(     7)      4  120.000(     9)      0
 ---------------------------------------------------------------------------------------------------
                         Z-Matrix orientation:                         
 ---------------------------------------------------------------------
 Center     Atomic      Atomic             Coordinates (Angstroms)
 Number     Number       Type             X           Y           Z
 ---------------------------------------------------------------------
      1         -1           0        0.000000    0.000000    0.000000
      2          7           0        0.000000    0.000000    0.960400
      3          1           0        0.948064    0.000000    1.305467
      4          1           0       -0.474032    0.821047    1.305467
      5          1           0       -0.474032   -0.821047    1.305467
 ---------------------------------------------------------------------
                    Distance matrix (angstroms):
                    1          2          3          4          5
     1  X    0.000000
     2  N    0.960400   0.000000
     3  H    1.613403   1.008908   0.000000
     4  H    1.613403   1.008908   1.642094   0.000000
     5  H    1.613403   1.008908   1.642094   1.642094   0.000000
 Stoichiometry    H3N
 Framework group  C3V[C3(N),3SGV(H)]
 Deg. of freedom     2
 Full point group                 C3V     NOp   6
 Largest Abelian subgroup         CS      NOp   2
 Largest concise Abelian subgroup CS      NOp   2
                         Standard orientation:                         
 ---------------------------------------------------------------------
 Center     Atomic      Atomic             Coordinates (Angstroms)
 Number     Number       Type             X           Y           Z
 ---------------------------------------------------------------------
      1          7           0        0.000000    0.000000    0.103520
      2          1           0        0.000000    0.948064   -0.241547
      3          1           0        0.821047   -0.474032   -0.241547
      4          1           0       -0.821047   -0.474032   -0.241547
 ---------------------------------------------------------------------
 Rotational constants (GHZ):    305.3894005    305.3894005    185.9669712
 Standard basis: 6-31G(d,p) (6D, 7F)
 There are    20 symmetry adapted basis functions of A'  symmetry.
 There are    10 symmetry adapted basis functions of A"  symmetry.
 Integral buffers will be    131072 words long.
 Raffenetti 1 integral format.
 Two-electron integral symmetry is turned on.
    30 basis functions,    49 primitive gaussians,    30 cartesian basis functions
     5 alpha electrons        5 beta electrons
       nuclear repulsion energy        11.9813730129 Hartrees.
 NAtoms=    4 NActive=    4 NUniq=    2 SFac= 4.00D+00 NAtFMM=   60 NAOKFM=F Big=F
 One-electron integrals computed using PRISM.
 NBasis=    30 RedAO= T  NBF=    20    10
 NBsUse=    30 1.00D-06 NBFU=    20    10
 Initial guess read from the read-write file.
 B after Tr=     0.000000    0.000000    0.000000
         Rot=    1.000000    0.000000    0.000000    0.000000 Ang=   0.00 deg.
 Initial guess orbital symmetries:
       Occupied  (A1) (A1) (E) (E) (A1)
       Virtual   (A1) (E) (E) (E) (E) (A1) (A1) (E) (E) (A1) (E)
                 (E) (A1) (A2) (E) (E) (E) (E) (A1) (E) (E) (A1)
                 (E) (E) (A1)
 Requested convergence on RMS density matrix=1.00D-08 within 128 cycles.
 Requested convergence on MAX density matrix=1.00D-06.
 Requested convergence on             energy=1.00D-06.
 No special actions if energy rises.
 Keep R1 ints in memory in canonical form, NReq=949711.
 SCF Done:  E(RHF) =  -56.1951858792     A.U. after    8 cycles
             Convg  =    0.1059D-08             -V/T =  2.0025
 ExpMin= 1.61D-01 ExpMax= 4.17D+03 ExpMxC= 6.27D+02 IAcc=3 IRadAn=         5 AccDes= 0.00D+00
 HarFok:  IExCor=  205 AccDes= 0.00D+00 IRadAn=         5 IDoV=-2
 ScaDFX=  1.000000  1.000000  1.000000  1.000000
 Range of M.O.s used for correlation:     2    30
 NBasis=    30 NAE=     5 NBE=     5 NFC=     1 NFV=     0
 NROrb=     29 NOA=     4 NOB=     4 NVA=    25 NVB=    25
 Fully direct method using O(ONN) memory.
 JobTyp=1 Pass  1:  I=   2 to   5 NPSUse=  1 ParTrn=F ParDer=F DoDerP=T.
 Spin components of T(2) and E(2):
     alpha-alpha T2 =       0.6103667021D-02 E2=     -0.2106314398D-01
     alpha-beta  T2 =       0.4118920085D-01 E2=     -0.1454523937D+00
     beta-beta   T2 =       0.6103667021D-02 E2=     -0.2106314398D-01
 ANorm=    0.1026351078D+01
 E2 =    -0.1875786816D+00 EUMP2 =    -0.56382764560859D+02
          IDoAtm=1111
          Differentiating once with respect to electric field.
                with respect to dipole field.
          Differentiating once with respect to nuclear coordinates.
          Keep R1 ints in memory in canonical form, NReq=928986.
          There are     1 degrees of freedom in the 1st order CPHF.  IDoFFX=0.
 LinEq1:  Iter=  0 NonCon=     1 RMS=3.81D-03 Max=1.89D-02
 AX will form     1 AO Fock derivatives at one time.
 LinEq1:  Iter=  1 NonCon=     1 RMS=1.18D-03 Max=8.45D-03
 LinEq1:  Iter=  2 NonCon=     1 RMS=2.97D-04 Max=1.95D-03
 LinEq1:  Iter=  3 NonCon=     1 RMS=3.69D-05 Max=1.91D-04
 LinEq1:  Iter=  4 NonCon=     1 RMS=3.93D-06 Max=2.66D-05
 LinEq1:  Iter=  5 NonCon=     1 RMS=4.05D-07 Max=1.54D-06
 LinEq1:  Iter=  6 NonCon=     1 RMS=4.91D-08 Max=2.21D-07
 LinEq1:  Iter=  7 NonCon=     1 RMS=4.04D-09 Max=2.27D-08
 LinEq1:  Iter=  8 NonCon=     1 RMS=2.72D-10 Max=1.13D-09
 LinEq1:  Iter=  9 NonCon=     0 RMS=1.46D-11 Max=8.30D-11
 Linear equations converged to 1.000D-10 1.000D-09 after     9 iterations.
 End of Minotr Frequency-dependent properties file   721 does not exist.
 End of Minotr Frequency-dependent properties file   722 does not exist.
 Calling FoFJK, ICntrl=      2127 FMM=F ISym2X=1 I1Cent= 0 IOpClX= 0 NMat=1 NMatS=1 NMatT=0.
 ***** Axes restored to original set *****
 -------------------------------------------------------------------
 Center     Atomic                   Forces (Hartrees/Bohr)
 Number     Number              X              Y              Z
 -------------------------------------------------------------------
      1        7           0.000000000    0.000000000   -0.008953033
      2        1          -0.001122567    0.000000000    0.002984344
      3        1           0.000561284   -0.000972172    0.002984344
      4        1           0.000561284    0.000972172    0.002984344
 -------------------------------------------------------------------
 Cartesian Forces:  Max     0.008953033 RMS     0.003036668
 -----------------------------------------------------------------------------------------------
                       Internal Coordinate Forces (Hartree/Bohr or radian)
  Cent   Atom   N1       Length/X         N2         Alpha/Y        N3         Beta/Z          J
 -----------------------------------------------------------------------------------------------
         X 
      1  N        1   0.000000(     1)
      2  H        2  -0.000034(     2)      1   0.006079(     5)
      3  H        2  -0.000034(     3)      1   0.006079(     6)      3   0.000000(     8)     0
      4  H        2  -0.000034(     4)      1   0.006079(     7)      4   0.000000(     9)     0
 -----------------------------------------------------------------------------------------------
 Internal  Forces:  Max     0.006078700 RMS     0.003509594

 GradGradGradGradGradGradGradGradGradGradGradGradGradGradGradGradGradGrad
 Berny optimization.
 Search for a local minimum.
 Step number   2 out of a maximum of   20
 All quantities printed in internal units (Hartrees-Bohrs-Radians)
 Update second derivatives using D2CorN and points    1    2
 DE= -1.96D-06 DEPred=-2.05D-06 R= 9.56D-01
 SS=  1.41D+00  RLast= 2.97D-03 DXNew= 5.0454D-01 8.9184D-03
 Trust test= 9.56D-01 RLast= 2.97D-03 DXMaxT set to 3.00D-01
 The second derivative matrix:
                         nxx2       hn3       hn4      dih4       hn5
           nxx2         0.00000
           hn3          0.00000   0.46973
           hn4          0.00000   0.00664   0.46973
           dih4         0.00000   0.00000   0.00000   0.20916
           hn5          0.00000   0.00664   0.00664   0.00000   0.46973
           dih5         0.00000   0.00000   0.00000   0.10458   0.00000
           hnxx3        0.00000  -0.01131  -0.01131   0.00000  -0.01131
           hnxx4        0.00000  -0.01131  -0.01131  -0.06593  -0.01131
           hnxx5        0.00000  -0.01131  -0.01131   0.06593  -0.01131
                         dih5      hnxx3     hnxx4     hnxx5
           dih5         0.20916
           hnxx3        0.06593   0.08411
           hnxx4       -0.06593   0.04255   0.08411
           hnxx5        0.00000   0.04255   0.04255   0.08411
 ITU=  1  0
     Eigenvalues ---    0.00000   0.10458   0.31375   0.46309   0.46309
     Eigenvalues ---    0.483001000.000001000.000001000.00000
 RFO step:  Lambda=-5.96046510D-09 EMin=-6.27400269D-16
 Quartic linear search produced a step of -0.04134.
 Variable       Old X    -DE/DX   Delta X   Delta X   Delta X     New X
                                 (Linear)    (Quad)   (Total)
   nxx2       1.81489   0.00000   0.00000  -0.00005  -0.00005   1.81485
   hn3        1.90656  -0.00003  -0.00007   0.00000  -0.00007   1.90649
   hn4        1.90656  -0.00003  -0.00007   0.00000  -0.00007   1.90649
   dih4       2.09440   0.00000   0.00000   0.00000   0.00000   2.09440
   hn5        1.90656  -0.00003  -0.00007   0.00000  -0.00007   1.90649
   dih5       2.09440   0.00000   0.00000   0.00000   0.00000   2.09440
  hnxx3       1.91986   0.00608   0.00000   0.00000   0.00000   1.91986
  hnxx4       1.91986   0.00608   0.00000   0.00000   0.00000   1.91986
  hnxx5       1.91986   0.00608   0.00000   0.00000   0.00000   1.91986
         Item               Value     Threshold  Converged?
 Maximum Force            0.000034     0.000450     YES
 RMS     Force            0.000024     0.000300     YES
 Maximum Displacement     0.000071     0.001800     YES
 RMS     Displacement     0.000044     0.001200     YES
 Predicted change in Energy=-3.624402D-09
 Optimization completed.
    -- Stationary point found.
                       ----------------------------
                       !   Optimized Parameters   !
                       ! (Angstroms and Degrees)  !
 ----------------------                            ----------------------
 !      Name          Value   Derivative information (Atomic Units)     !
 ------------------------------------------------------------------------
 !      nxx2         0.9604   -DE/DX =    0.0                           !
 !       hn3         1.0089   -DE/DX =    0.0                           !
 !       hn4         1.0089   -DE/DX =    0.0                           !
 !      dih4       120.0      -DE/DX =    0.0                           !
 !       hn5         1.0089   -DE/DX =    0.0                           !
 !      dih5       120.0      -DE/DX =    0.0                           !
 !      hnxx3      110.0      -DE/DX =    0.0061                        !
 !      hnxx4      110.0      -DE/DX =    0.0061                        !
 !      hnxx5      110.0      -DE/DX =    0.0061                        !
 ------------------------------------------------------------------------
 GradGradGradGradGradGradGradGradGradGradGradGradGradGradGradGradGradGrad

 ---------------------------------------------------------------------------------------------------
                            Z-MATRIX (ANGSTROMS AND DEGREES)
   CD    Cent   Atom    N1       Length/X        N2       Alpha/Y        N3        Beta/Z          J
 ---------------------------------------------------------------------------------------------------
      1         X 
      2      1  N        1   0.960400(     1)
      3      2  H        2   1.008908(     2)      1  110.000(     5)
      4      3  H        2   1.008908(     3)      1  110.000(     6)      3  120.000(     8)      0
      5      4  H        2   1.008908(     4)      1  110.000(     7)      4  120.000(     9)      0
 ---------------------------------------------------------------------------------------------------
                         Z-Matrix orientation:                         
 ---------------------------------------------------------------------
 Center     Atomic      Atomic             Coordinates (Angstroms)
 Number     Number       Type             X           Y           Z
 ---------------------------------------------------------------------
      1         -1           0        0.000000    0.000000    0.000000
      2          7           0        0.000000    0.000000    0.960400
      3          1           0        0.948064    0.000000    1.305467
      4          1           0       -0.474032    0.821047    1.305467
      5          1           0       -0.474032   -0.821047    1.305467
 ---------------------------------------------------------------------
                    Distance matrix (angstroms):
                    1          2          3          4          5
     1  X    0.000000
     2  N    0.960400   0.000000
     3  H    1.613403   1.008908   0.000000
     4  H    1.613403   1.008908   1.642094   0.000000
     5  H    1.613403   1.008908   1.642094   1.642094   0.000000
 Stoichiometry    H3N
 Framework group  C3V[C3(N),3SGV(H)]
 Deg. of freedom     2
 Full point group                 C3V     NOp   6
 Largest Abelian subgroup         CS      NOp   2
 Largest concise Abelian subgroup CS      NOp   2
                         Standard orientation:                         
 ---------------------------------------------------------------------
 Center     Atomic      Atomic             Coordinates (Angstroms)
 Number     Number       Type             X           Y           Z
 ---------------------------------------------------------------------
      1          7           0        0.000000    0.000000    0.103520
      2          1           0        0.000000    0.948064   -0.241547
      3          1           0        0.821047   -0.474032   -0.241547
      4          1           0       -0.821047   -0.474032   -0.241547
 ---------------------------------------------------------------------
 Rotational constants (GHZ):    305.3894005    305.3894005    185.9669712

 **********************************************************************

            Population analysis using the SCF density.

 **********************************************************************

 Orbital symmetries:
       Occupied  (A1) (A1) (E) (E) (A1)
       Virtual   (A1) (E) (E) (E) (E) (A1) (A1) (E) (E) (A1) (E)
                 (E) (A1) (A2) (E) (E) (E) (E) (A1) (E) (E) (A1)
                 (E) (E) (A1)
 The electronic state is 1-A1.
 Alpha  occ. eigenvalues --  -15.53507  -1.13226  -0.62402  -0.62402  -0.41369
 Alpha virt. eigenvalues --    0.22336   0.32434   0.32434   0.89957   0.89957
 Alpha virt. eigenvalues --    0.96456   1.13730   1.16150   1.16150   1.33452
 Alpha virt. eigenvalues --    1.70134   1.70134   2.18401   2.38449   2.52877
 Alpha virt. eigenvalues --    2.52877   2.73533   2.73533   3.05483   3.32766
 Alpha virt. eigenvalues --    3.32766   3.62066   3.81323   3.81323   4.33813
          Condensed to atoms (all electrons):
              1          2          3          4
     1  N    6.729195   0.356871   0.356871   0.356871
     2  H    0.356871   0.432488  -0.027981  -0.027981
     3  H    0.356871  -0.027981   0.432488  -0.027981
     4  H    0.356871  -0.027981  -0.027981   0.432488
 Mulliken atomic charges:
              1
     1  N   -0.799809
     2  H    0.266603
     3  H    0.266603
     4  H    0.266603
 Sum of Mulliken atomic charges =   0.00000
 Mulliken charges with hydrogens summed into heavy atoms:
              1
     1  N    0.000000
 Sum of Mulliken charges with hydrogens summed into heavy atoms =   0.00000
 Electronic spatial extent (au):  <R**2>=             26.0103
 Charge=              0.0000 electrons
 Dipole moment (field-independent basis, Debye):
    X=              0.0000    Y=              0.0000    Z=             -1.7555  Tot=              1.7555
 Quadrupole moment (field-independent basis, Debye-Ang):
   XX=             -5.9649   YY=             -5.9649   ZZ=             -8.9023
   XY=              0.0000   XZ=              0.0000   YZ=              0.0000
 Traceless Quadrupole moment (field-independent basis, Debye-Ang):
   XX=              0.9791   YY=              0.9791   ZZ=             -1.9583
   XY=              0.0000   XZ=              0.0000   YZ=              0.0000
 Octapole moment (field-independent basis, Debye-Ang**2):
  XXX=              0.0000  YYY=              0.9462  ZZZ=             -1.5876  XYY=              0.0000
  XXY=             -0.9462  XXZ=             -0.8860  XZZ=              0.0000  YZZ=              0.0000
  YYZ=             -0.8860  XYZ=              0.0000
 Hexadecapole moment (field-independent basis, Debye-Ang**3):
 XXXX=             -9.1899 YYYY=             -9.1899 ZZZZ=             -9.5190 XXXY=              0.0000
 XXXZ=              0.0000 YYYX=              0.0000 YYYZ=             -0.3264 ZZZX=              0.0000
 ZZZY=              0.0000 XXYY=             -3.0633 XXZZ=             -3.2314 YYZZ=             -3.2314
 XXYZ=              0.3264 YYXZ=              0.0000 ZZXY=              0.0000
 N-N= 1.198137301290D+01 E-N=-1.557506450328D+02  KE= 5.605564840580D+01
 Symmetry A'   KE= 5.347169649889D+01
 Symmetry A"   KE= 2.583951906905D+00
 1\1\GINC-NISER-THINKCENTRE-M93P\POpt\RMP2-FC\6-31G(d,p)\H3N1\STUDENT\0
 4-Mar-2021\1\\# mp2/6-31g** opt=z-matrix\\si\\0,1\X\N,1,nxx2\H,2,hn3,1
 ,hnxx3\H,2,hn4,1,hnxx4,3,dih4,0\H,2,hn5,1,hnxx5,4,dih5,0\\nxx2=0.9604\
 hn3=1.00890825\hn4=1.00890825\dih4=120.\hn5=1.00890825\dih5=120.\hnxx3
 =110.\hnxx4=110.\hnxx5=110.\\Version=EM64L-G09RevC.01\State=1-A1\HF=-5
 6.1951859\MP2=-56.3827646\RMSD=1.059e-09\RMSF=3.037e-03\Dipole=0.,0.,0
 .675775\PG=C03V [C3(N1),3SGV(H1)]\\@


 IT IS NOT EASY TO DESCRIBE
     THE SEA WITH THE MOUTH

                   -- KOKYU
 Job cpu time:  0 days  0 hours  0 minutes  2.1 seconds.
 File lengths (MBytes):  RWF=      5 Int=      0 D2E=      0 Chk=      1 Scr=      1
 Normal termination of Gaussian 09 at Thu Mar  4 15:55:21 2021.
