 Entering Gaussian System, Link 0=g09
 Input=m115.com
 Output=m115.log
 Initial command:
 /home/student/g09/l1.exe /home/student/singh/4/a/Gau-30810.inp -scrdir=/home/student/singh/4/a/
 Entering Link 1 = /home/student/g09/l1.exe PID=     30813.
  
 Copyright (c) 1988,1990,1992,1993,1995,1998,2003,2009,2011,
            Gaussian, Inc.  All Rights Reserved.
  
 This is part of the Gaussian(R) 09 program.  It is based on
 the Gaussian(R) 03 system (copyright 2003, Gaussian, Inc.),
 the Gaussian(R) 98 system (copyright 1998, Gaussian, Inc.),
 the Gaussian(R) 94 system (copyright 1995, Gaussian, Inc.),
 the Gaussian 92(TM) system (copyright 1992, Gaussian, Inc.),
 the Gaussian 90(TM) system (copyright 1990, Gaussian, Inc.),
 the Gaussian 88(TM) system (copyright 1988, Gaussian, Inc.),
 the Gaussian 86(TM) system (copyright 1986, Carnegie Mellon
 University), and the Gaussian 82(TM) system (copyright 1983,
 Carnegie Mellon University). Gaussian is a federally registered
 trademark of Gaussian, Inc.
  
 This software contains proprietary and confidential information,
 including trade secrets, belonging to Gaussian, Inc.
  
 This software is provided under written license and may be
 used, copied, transmitted, or stored only in accord with that
 written license.
  
 The following legend is applicable only to US Government
 contracts under FAR:
  
                    RESTRICTED RIGHTS LEGEND
  
 Use, reproduction and disclosure by the US Government is
 subject to restrictions as set forth in subparagraphs (a)
 and (c) of the Commercial Computer Software - Restricted
 Rights clause in FAR 52.227-19.
  
 Gaussian, Inc.
 340 Quinnipiac St., Bldg. 40, Wallingford CT 06492
  
  
 ---------------------------------------------------------------
 Warning -- This program may not be used in any manner that
 competes with the business of Gaussian, Inc. or will provide
 assistance to any competitor of Gaussian, Inc.  The licensee
 of this program is prohibited from giving any competitor of
 Gaussian, Inc. access to this program.  By using this program,
 the user acknowledges that Gaussian, Inc. is engaged in the
 business of creating and licensing software in the field of
 computational chemistry and represents and warrants to the
 licensee that it is not a competitor of Gaussian, Inc. and that
 it will not use this program in any manner prohibited above.
 ---------------------------------------------------------------
  

 Cite this work as:
 Gaussian 09, Revision C.01,
 M. J. Frisch, G. W. Trucks, H. B. Schlegel, G. E. Scuseria, 
 M. A. Robb, J. R. Cheeseman, G. Scalmani, V. Barone, B. Mennucci, 
 G. A. Petersson, H. Nakatsuji, M. Caricato, X. Li, H. P. Hratchian, 
 A. F. Izmaylov, J. Bloino, G. Zheng, J. L. Sonnenberg, M. Hada, 
 M. Ehara, K. Toyota, R. Fukuda, J. Hasegawa, M. Ishida, T. Nakajima, 
 Y. Honda, O. Kitao, H. Nakai, T. Vreven, J. A. Montgomery, Jr., 
 J. E. Peralta, F. Ogliaro, M. Bearpark, J. J. Heyd, E. Brothers, 
 K. N. Kudin, V. N. Staroverov, T. Keith, R. Kobayashi, J. Normand, 
 K. Raghavachari, A. Rendell, J. C. Burant, S. S. Iyengar, J. Tomasi, 
 M. Cossi, N. Rega, J. M. Millam, M. Klene, J. E. Knox, J. B. Cross, 
 V. Bakken, C. Adamo, J. Jaramillo, R. Gomperts, R. E. Stratmann, 
 O. Yazyev, A. J. Austin, R. Cammi, C. Pomelli, J. W. Ochterski, 
 R. L. Martin, K. Morokuma, V. G. Zakrzewski, G. A. Voth, 
 P. Salvador, J. J. Dannenberg, S. Dapprich, A. D. Daniels, 
 O. Farkas, J. B. Foresman, J. V. Ortiz, J. Cioslowski, 
 and D. J. Fox, Gaussian, Inc., Wallingford CT, 2010.
 
 ******************************************
 Gaussian 09:  EM64L-G09RevC.01 23-Sep-2011
                 4-Mar-2021 
 ******************************************
 --------------------------
 # mp2/6-31g** opt=z-matrix
 --------------------------
 1/10=7,18=40,38=1/1,3;
 2/12=2,17=6,18=5,29=3,40=1/2;
 3/5=1,6=6,7=101,11=9,16=1,25=1,30=1,71=1/1,2,3;
 4//1;
 5/5=2,38=5/2;
 8/6=4,10=2/1;
 9/15=2,16=-3/6;
 10/5=1/2;
 6/7=2,8=2,9=2,10=2/1;
 7/12=2,29=1/1,2,3,16;
 1/10=7,18=40/3(2);
 2/29=3/2;
 99//99;
 2/29=3/2;
 3/5=1,6=6,7=101,11=9,16=1,25=1,30=1,71=1/1,2,3;
 4/5=5,16=3/1;
 5/5=2,38=5/2;
 8/6=4,10=2/1;
 9/15=2,16=-3/6;
 10/5=1/2;
 7/12=2/1,2,3,16;
 1/18=40/3(-8);
 2/29=3/2;
 6/7=2,8=2,9=2,10=2/1;
 99//99;
 --
 si
 --
 Charge =  0 Multiplicity = 1
 Symbolic Z-Matrix:
 xx
 n                    1    nxx2
 h                    2    hn3      1    hnxx3
 h                    2    hn4      1    hnxx4    3    dih4     0
 h                    2    hn5      1    hnxx5    4    dih5     0
       Variables:
  nxx2                  0.9604                   
  hn3                   1.008                    
  hn4                   1.008                    
  dih4                120.                       
  hn5                   1.008                    
  dih5                120.                       
       Constants:
  hnxx3               115.                       
  hnxx4               115.                       
  hnxx5               115.                       
 

 GradGradGradGradGradGradGradGradGradGradGradGradGradGradGradGradGradGrad
 Berny optimization.
 Initialization pass.
                       ----------------------------
                       !    Initial Parameters    !
                       ! (Angstroms and Degrees)  !
 ----------------------                            ----------------------
 !      Name          Value   Derivative information (Atomic Units)     !
 ------------------------------------------------------------------------
 !      nxx2         0.9604   estimate D2E/DX2                          !
 !       hn3         1.008    estimate D2E/DX2                          !
 !       hn4         1.008    estimate D2E/DX2                          !
 !      dih4       120.0      estimate D2E/DX2                          !
 !       hn5         1.008    estimate D2E/DX2                          !
 !      dih5       120.0      estimate D2E/DX2                          !
 !      hnxx3      115.0      Frozen                                    !
 !      hnxx4      115.0      Frozen                                    !
 !      hnxx5      115.0      Frozen                                    !
 ------------------------------------------------------------------------
 Trust Radius=3.00D-01 FncErr=1.00D-07 GrdErr=1.00D-07
 Number of steps in this run=     20 maximum allowed number of steps=    100.
 GradGradGradGradGradGradGradGradGradGradGradGradGradGradGradGradGradGrad

 ---------------------------------------------------------------------------------------------------
                            Z-MATRIX (ANGSTROMS AND DEGREES)
   CD    Cent   Atom    N1       Length/X        N2       Alpha/Y        N3        Beta/Z          J
 ---------------------------------------------------------------------------------------------------
      1         X 
      2      1  N        1   0.960400(     1)
      3      2  H        2   1.008000(     2)      1  115.000(     5)
      4      3  H        2   1.008000(     3)      1  115.000(     6)      3  120.000(     8)      0
      5      4  H        2   1.008000(     4)      1  115.000(     7)      4  120.000(     9)      0
 ---------------------------------------------------------------------------------------------------
                         Z-Matrix orientation:                         
 ---------------------------------------------------------------------
 Center     Atomic      Atomic             Coordinates (Angstroms)
 Number     Number       Type             X           Y           Z
 ---------------------------------------------------------------------
      1         -1           0        0.000000    0.000000    0.000000
      2          7           0        0.000000    0.000000    0.960400
      3          1           0        0.913558    0.000000    1.386399
      4          1           0       -0.456779    0.791165    1.386399
      5          1           0       -0.456779   -0.791165    1.386399
 ---------------------------------------------------------------------
                    Distance matrix (angstroms):
                    1          2          3          4          5
     1  X    0.000000
     2  N    0.960400   0.000000
     3  H    1.660329   1.008000   0.000000
     4  H    1.660329   1.008000   1.582329   0.000000
     5  H    1.660329   1.008000   1.582329   1.582329   0.000000
 Stoichiometry    H3N
 Framework group  C3V[C3(N),3SGV(H)]
 Deg. of freedom     2
 Full point group                 C3V     NOp   6
 Largest Abelian subgroup         CS      NOp   2
 Largest concise Abelian subgroup CS      NOp   2
                         Standard orientation:                         
 ---------------------------------------------------------------------
 Center     Atomic      Atomic             Coordinates (Angstroms)
 Number     Number       Type             X           Y           Z
 ---------------------------------------------------------------------
      1          7           0        0.000000    0.000000    0.127800
      2          1           0        0.000000    0.913558   -0.298199
      3          1           0        0.791165   -0.456779   -0.298199
      4          1           0       -0.791165   -0.456779   -0.298199
 ---------------------------------------------------------------------
 Rotational constants (GHZ):    295.0372811    295.0372811    200.2803358
 Standard basis: 6-31G(d,p) (6D, 7F)
 There are    20 symmetry adapted basis functions of A'  symmetry.
 There are    10 symmetry adapted basis functions of A"  symmetry.
 Integral buffers will be    131072 words long.
 Raffenetti 1 integral format.
 Two-electron integral symmetry is turned on.
    30 basis functions,    49 primitive gaussians,    30 cartesian basis functions
     5 alpha electrons        5 beta electrons
       nuclear repulsion energy        12.0278129410 Hartrees.
 NAtoms=    4 NActive=    4 NUniq=    2 SFac= 4.00D+00 NAtFMM=   60 NAOKFM=F Big=F
 One-electron integrals computed using PRISM.
 NBasis=    30 RedAO= T  NBF=    20    10
 NBsUse=    30 1.00D-06 NBFU=    20    10
 Harris functional with IExCor=  205 diagonalized for initial guess.
 ExpMin= 1.61D-01 ExpMax= 4.17D+03 ExpMxC= 6.27D+02 IAcc=1 IRadAn=         1 AccDes= 0.00D+00
 HarFok:  IExCor=  205 AccDes= 0.00D+00 IRadAn=         1 IDoV= 1
 ScaDFX=  1.000000  1.000000  1.000000  1.000000
 FoFCou: FMM=F IPFlag=           0 FMFlag=      100000 FMFlg1=           0
         NFxFlg=           0 DoJE=T BraDBF=F KetDBF=T FulRan=T
         Omega=  0.000000  0.000000  1.000000  0.000000  0.000000 ICntrl=     500 IOpCl=  0
         NMat0=    1 NMatS0=    1 NMatT0=    0 NMatD0=    1 NMtDS0=    0 NMtDT0=    0
         I1Cent=           4 NGrid=           0.
 Petite list used in FoFCou.
 Initial guess orbital symmetries:
       Occupied  (A1) (A1) (E) (E) (A1)
       Virtual   (A1) (E) (E) (A1) (E) (E) (E) (E) (A1) (A1) (E)
                 (E) (A1) (A2) (E) (E) (E) (E) (A1) (E) (E) (A1)
                 (E) (E) (A1)
 The electronic state of the initial guess is 1-A1.
 Requested convergence on RMS density matrix=1.00D-08 within 128 cycles.
 Requested convergence on MAX density matrix=1.00D-06.
 Requested convergence on             energy=1.00D-06.
 No special actions if energy rises.
 Keep R1 ints in memory in canonical form, NReq=949711.
 SCF Done:  E(RHF) =  -56.1944689788     A.U. after   10 cycles
             Convg  =    0.1993D-08             -V/T =  2.0018
 ExpMin= 1.61D-01 ExpMax= 4.17D+03 ExpMxC= 6.27D+02 IAcc=3 IRadAn=         5 AccDes= 0.00D+00
 HarFok:  IExCor=  205 AccDes= 0.00D+00 IRadAn=         5 IDoV=-2
 ScaDFX=  1.000000  1.000000  1.000000  1.000000
 Range of M.O.s used for correlation:     2    30
 NBasis=    30 NAE=     5 NBE=     5 NFC=     1 NFV=     0
 NROrb=     29 NOA=     4 NOB=     4 NVA=    25 NVB=    25
 Fully direct method using O(ONN) memory.
 JobTyp=1 Pass  1:  I=   2 to   5 NPSUse=  1 ParTrn=F ParDer=F DoDerP=T.
 Spin components of T(2) and E(2):
     alpha-alpha T2 =       0.6117096467D-02 E2=     -0.2107479354D-01
     alpha-beta  T2 =       0.4153024228D-01 E2=     -0.1460555783D+00
     beta-beta   T2 =       0.6117096467D-02 E2=     -0.2107479354D-01
 ANorm=    0.1026530289D+01
 E2 =    -0.1882051654D+00 EUMP2 =    -0.56382674144178D+02
          IDoAtm=1111
          Differentiating once with respect to electric field.
                with respect to dipole field.
          Differentiating once with respect to nuclear coordinates.
          Keep R1 ints in memory in canonical form, NReq=928986.
          There are     1 degrees of freedom in the 1st order CPHF.  IDoFFX=0.
 LinEq1:  Iter=  0 NonCon=     1 RMS=3.97D-03 Max=1.94D-02
 AX will form     1 AO Fock derivatives at one time.
 LinEq1:  Iter=  1 NonCon=     1 RMS=1.24D-03 Max=8.55D-03
 LinEq1:  Iter=  2 NonCon=     1 RMS=3.54D-04 Max=2.39D-03
 LinEq1:  Iter=  3 NonCon=     1 RMS=3.90D-05 Max=1.66D-04
 LinEq1:  Iter=  4 NonCon=     1 RMS=3.56D-06 Max=2.57D-05
 LinEq1:  Iter=  5 NonCon=     1 RMS=4.16D-07 Max=1.52D-06
 LinEq1:  Iter=  6 NonCon=     1 RMS=5.93D-08 Max=2.30D-07
 LinEq1:  Iter=  7 NonCon=     1 RMS=5.20D-09 Max=3.39D-08
 LinEq1:  Iter=  8 NonCon=     1 RMS=3.18D-10 Max=1.37D-09
 LinEq1:  Iter=  9 NonCon=     0 RMS=2.23D-11 Max=1.00D-10
 Linear equations converged to 1.000D-10 1.000D-09 after     9 iterations.
 End of Minotr Frequency-dependent properties file   721 does not exist.
 End of Minotr Frequency-dependent properties file   722 does not exist.

 **********************************************************************

            Population analysis using the SCF density.

 **********************************************************************

 Orbital symmetries:
       Occupied  (A1) (A1) (E) (E) (A1)
       Virtual   (A1) (E) (E) (E) (E) (A1) (E) (E) (A1) (A1) (E)
                 (E) (A1) (A2) (E) (E) (E) (E) (A1) (E) (E) (A1)
                 (E) (E) (A1)
 The electronic state is 1-A1.
 Alpha  occ. eigenvalues --  -15.54049  -1.14502  -0.61792  -0.61792  -0.43126
 Alpha virt. eigenvalues --    0.22030   0.32263   0.32263   0.88551   0.88551
 Alpha virt. eigenvalues --    0.96001   1.15725   1.15725   1.17935   1.38624
 Alpha virt. eigenvalues --    1.68207   1.68207   2.09697   2.42445   2.59623
 Alpha virt. eigenvalues --    2.59623   2.66036   2.66036   3.18808   3.28431
 Alpha virt. eigenvalues --    3.28431   3.59515   3.84244   3.84244   4.30467
          Condensed to atoms (all electrons):
              1          2          3          4
     1  N    6.716687   0.352045   0.352045   0.352045
     2  H    0.352045   0.452304  -0.030978  -0.030978
     3  H    0.352045  -0.030978   0.452304  -0.030978
     4  H    0.352045  -0.030978  -0.030978   0.452304
 Mulliken atomic charges:
              1
     1  N   -0.772821
     2  H    0.257607
     3  H    0.257607
     4  H    0.257607
 Sum of Mulliken atomic charges =   0.00000
 Mulliken charges with hydrogens summed into heavy atoms:
              1
     1  N    0.000000
 Sum of Mulliken charges with hydrogens summed into heavy atoms =   0.00000
 Electronic spatial extent (au):  <R**2>=             26.0125
 Charge=              0.0000 electrons
 Dipole moment (field-independent basis, Debye):
    X=              0.0000    Y=              0.0000    Z=             -2.0560  Tot=              2.0560
 Quadrupole moment (field-independent basis, Debye-Ang):
   XX=             -6.2283   YY=             -6.2283   ZZ=             -8.6745
   XY=              0.0000   XZ=              0.0000   YZ=              0.0000
 Traceless Quadrupole moment (field-independent basis, Debye-Ang):
   XX=              0.8154   YY=              0.8154   ZZ=             -1.6308
   XY=              0.0000   XZ=              0.0000   YZ=              0.0000
 Octapole moment (field-independent basis, Debye-Ang**2):
  XXX=              0.0000  YYY=              0.7755  ZZZ=             -1.9004  XYY=              0.0000
  XXY=             -0.7755  XXZ=             -1.0028  XZZ=              0.0000  YZZ=              0.0000
  YYZ=             -1.0028  XYZ=              0.0000
 Hexadecapole moment (field-independent basis, Debye-Ang**3):
 XXXX=             -9.4147 YYYY=             -9.4147 ZZZZ=             -9.8745 XXXY=              0.0000
 XXXZ=              0.0000 YYYX=              0.0000 YYYZ=             -0.3477 ZZZX=              0.0000
 ZZZY=              0.0000 XXYY=             -3.1382 XXZZ=             -3.2001 YYZZ=             -3.2001
 XXYZ=              0.3477 YYXZ=              0.0000 ZZXY=              0.0000
 N-N= 1.202781294102D+01 E-N=-1.558354136086D+02  KE= 5.609607324948D+01
 Symmetry A'   KE= 5.349781618596D+01
 Symmetry A"   KE= 2.598257063516D+00
 Calling FoFJK, ICntrl=      2127 FMM=F ISym2X=1 I1Cent= 0 IOpClX= 0 NMat=1 NMatS=1 NMatT=0.
 ***** Axes restored to original set *****
 -------------------------------------------------------------------
 Center     Atomic                   Forces (Hartrees/Bohr)
 Number     Number              X              Y              Z
 -------------------------------------------------------------------
      1        7           0.000000000    0.000000000    0.002090031
      2        1           0.008147982    0.000000000   -0.000696677
      3        1          -0.004073991    0.007056359   -0.000696677
      4        1          -0.004073991   -0.007056359   -0.000696677
 -------------------------------------------------------------------
 Cartesian Forces:  Max     0.008147982 RMS     0.004133130
 -----------------------------------------------------------------------------------------------
                       Internal Coordinate Forces (Hartree/Bohr or radian)
  Cent   Atom   N1       Length/X         N2         Alpha/Y        N3         Beta/Z          J
 -----------------------------------------------------------------------------------------------
         X 
      1  N        1   0.000000(     1)
      2  H        2   0.007090(     2)      1  -0.007762(     5)
      3  H        2   0.007090(     3)      1  -0.007762(     6)      3   0.000000(     8)     0
      4  H        2   0.007090(     4)      1  -0.007762(     7)      4   0.000000(     9)     0
 -----------------------------------------------------------------------------------------------
 Internal  Forces:  Max     0.007762029 RMS     0.006069578

 GradGradGradGradGradGradGradGradGradGradGradGradGradGradGradGradGradGrad
 Berny optimization.
 Search for a local minimum.
 Step number   1 out of a maximum of   20
 All quantities printed in internal units (Hartrees-Bohrs-Radians)
 Second derivative matrix not updated -- first step.
 The second derivative matrix:
                         nxx2       hn3       hn4      dih4       hn5
           nxx2         0.00000
           hn3          0.00000   0.46309
           hn4          0.00000   0.00000   0.46309
           dih4         0.00000   0.00000   0.00000   0.17114
           hn5          0.00000   0.00000   0.00000   0.00000   0.46309
           dih5         0.00000   0.00000   0.00000   0.08557   0.00000
           hnxx3        0.00000   0.00000   0.00000   0.00000   0.00000
           hnxx4        0.00000   0.00000   0.00000  -0.06911   0.00000
           hnxx5        0.00000   0.00000   0.00000   0.06911   0.00000
                         dih5      hnxx3     hnxx4     hnxx5
           dih5         0.17114
           hnxx3        0.06911   0.11170
           hnxx4       -0.06911   0.05588   0.11170
           hnxx5        0.00000   0.05588   0.05588   0.11170
 ITU=  0
     Eigenvalues ---    0.00000   0.08557   0.25672   0.46309   0.46309
     Eigenvalues ---    0.463091000.000001000.000001000.00000
 RFO step:  Lambda=-3.25441360D-04 EMin=-2.35922393D-16
 Linear search not attempted -- first point.
 Variable       Old X    -DE/DX   Delta X   Delta X   Delta X     New X
                                 (Linear)    (Quad)   (Total)
   nxx2       1.81489   0.00000   0.00000   0.00000   0.00000   1.81489
   hn3        1.90484   0.00709   0.00000   0.01530   0.01530   1.92014
   hn4        1.90484   0.00709   0.00000   0.01530   0.01530   1.92014
   dih4       2.09440   0.00000   0.00000   0.00000   0.00000   2.09440
   hn5        1.90484   0.00709   0.00000   0.01530   0.01530   1.92014
   dih5       2.09440   0.00000   0.00000   0.00000   0.00000   2.09440
  hnxx3       2.00713  -0.00776   0.00000   0.00000   0.00000   2.00713
  hnxx4       2.00713  -0.00776   0.00000   0.00000   0.00000   2.00713
  hnxx5       2.00713  -0.00776   0.00000   0.00000   0.00000   2.00713
         Item               Value     Threshold  Converged?
 Maximum Force            0.007090     0.000450     NO 
 RMS     Force            0.005013     0.000300     NO 
 Maximum Displacement     0.015300     0.001800     NO 
 RMS     Displacement     0.008833     0.001200     NO 
 Predicted change in Energy=-1.628307D-04
 GradGradGradGradGradGradGradGradGradGradGradGradGradGradGradGradGradGrad

 ---------------------------------------------------------------------------------------------------
                            Z-MATRIX (ANGSTROMS AND DEGREES)
   CD    Cent   Atom    N1       Length/X        N2       Alpha/Y        N3        Beta/Z          J
 ---------------------------------------------------------------------------------------------------
      1         X 
      2      1  N        1   0.960400(     1)
      3      2  H        2   1.016096(     2)      1  115.000(     5)
      4      3  H        2   1.016096(     3)      1  115.000(     6)      3  120.000(     8)      0
      5      4  H        2   1.016096(     4)      1  115.000(     7)      4  120.000(     9)      0
 ---------------------------------------------------------------------------------------------------
                         Z-Matrix orientation:                         
 ---------------------------------------------------------------------
 Center     Atomic      Atomic             Coordinates (Angstroms)
 Number     Number       Type             X           Y           Z
 ---------------------------------------------------------------------
      1         -1           0        0.000000    0.000000    0.000000
      2          7           0        0.000000    0.000000    0.960400
      3          1           0        0.920896    0.000000    1.389821
      4          1           0       -0.460448    0.797519    1.389821
      5          1           0       -0.460448   -0.797519    1.389821
 ---------------------------------------------------------------------
                    Distance matrix (angstroms):
                    1          2          3          4          5
     1  X    0.000000
     2  N    0.960400   0.000000
     3  H    1.667229   1.016096   0.000000
     4  H    1.667229   1.016096   1.595039   0.000000
     5  H    1.667229   1.016096   1.595039   1.595039   0.000000
 Stoichiometry    H3N
 Framework group  C3V[C3(N),3SGV(H)]
 Deg. of freedom     2
 Full point group                 C3V     NOp   6
 Largest Abelian subgroup         CS      NOp   2
 Largest concise Abelian subgroup CS      NOp   2
                         Standard orientation:                         
 ---------------------------------------------------------------------
 Center     Atomic      Atomic             Coordinates (Angstroms)
 Number     Number       Type             X           Y           Z
 ---------------------------------------------------------------------
      1          7           0        0.000000    0.000000    0.128826
      2          1           0        0.000000    0.920896   -0.300595
      3          1           0        0.797519   -0.460448   -0.300595
      4          1           0       -0.797519   -0.460448   -0.300595
 ---------------------------------------------------------------------
 Rotational constants (GHZ):    290.3542805    290.3542805    197.1013717
 Standard basis: 6-31G(d,p) (6D, 7F)
 There are    20 symmetry adapted basis functions of A'  symmetry.
 There are    10 symmetry adapted basis functions of A"  symmetry.
 Integral buffers will be    131072 words long.
 Raffenetti 1 integral format.
 Two-electron integral symmetry is turned on.
    30 basis functions,    49 primitive gaussians,    30 cartesian basis functions
     5 alpha electrons        5 beta electrons
       nuclear repulsion energy        11.9319749563 Hartrees.
 NAtoms=    4 NActive=    4 NUniq=    2 SFac= 4.00D+00 NAtFMM=   60 NAOKFM=F Big=F
 One-electron integrals computed using PRISM.
 NBasis=    30 RedAO= T  NBF=    20    10
 NBsUse=    30 1.00D-06 NBFU=    20    10
 Initial guess read from the read-write file.
 B after Tr=     0.000000    0.000000    0.000000
         Rot=    1.000000    0.000000    0.000000    0.000000 Ang=   0.00 deg.
 Initial guess orbital symmetries:
       Occupied  (A1) (A1) (E) (E) (A1)
       Virtual   (A1) (E) (E) (E) (E) (A1) (E) (E) (A1) (A1) (E)
                 (E) (A1) (A2) (E) (E) (E) (E) (A1) (E) (E) (A1)
                 (E) (E) (A1)
 Requested convergence on RMS density matrix=1.00D-08 within 128 cycles.
 Requested convergence on MAX density matrix=1.00D-06.
 Requested convergence on             energy=1.00D-06.
 No special actions if energy rises.
 Keep R1 ints in memory in canonical form, NReq=949711.
 SCF Done:  E(RHF) =  -56.1941922946     A.U. after    8 cycles
             Convg  =    0.8641D-08             -V/T =  2.0025
 ExpMin= 1.61D-01 ExpMax= 4.17D+03 ExpMxC= 6.27D+02 IAcc=3 IRadAn=         5 AccDes= 0.00D+00
 HarFok:  IExCor=  205 AccDes= 0.00D+00 IRadAn=         5 IDoV=-2
 ScaDFX=  1.000000  1.000000  1.000000  1.000000
 Range of M.O.s used for correlation:     2    30
 NBasis=    30 NAE=     5 NBE=     5 NFC=     1 NFV=     0
 NROrb=     29 NOA=     4 NOB=     4 NVA=    25 NVB=    25
 Fully direct method using O(ONN) memory.
 JobTyp=1 Pass  1:  I=   2 to   5 NPSUse=  1 ParTrn=F ParDer=F DoDerP=T.
 Spin components of T(2) and E(2):
     alpha-alpha T2 =       0.6158580772D-02 E2=     -0.2109703471D-01
     alpha-beta  T2 =       0.4195100170D-01 E2=     -0.1464457406D+00
     beta-beta   T2 =       0.6158580772D-02 E2=     -0.2109703471D-01
 ANorm=    0.1026775615D+01
 E2 =    -0.1886398101D+00 EUMP2 =    -0.56382832104639D+02
          IDoAtm=1111
          Differentiating once with respect to electric field.
                with respect to dipole field.
          Differentiating once with respect to nuclear coordinates.
          Keep R1 ints in memory in canonical form, NReq=928986.
          There are     1 degrees of freedom in the 1st order CPHF.  IDoFFX=0.
 LinEq1:  Iter=  0 NonCon=     1 RMS=4.06D-03 Max=1.99D-02
 AX will form     1 AO Fock derivatives at one time.
 LinEq1:  Iter=  1 NonCon=     1 RMS=1.29D-03 Max=8.88D-03
 LinEq1:  Iter=  2 NonCon=     1 RMS=3.71D-04 Max=2.50D-03
 LinEq1:  Iter=  3 NonCon=     1 RMS=4.03D-05 Max=1.73D-04
 LinEq1:  Iter=  4 NonCon=     1 RMS=3.79D-06 Max=2.75D-05
 LinEq1:  Iter=  5 NonCon=     1 RMS=4.64D-07 Max=1.62D-06
 LinEq1:  Iter=  6 NonCon=     1 RMS=6.56D-08 Max=2.34D-07
 LinEq1:  Iter=  7 NonCon=     1 RMS=5.62D-09 Max=3.59D-08
 LinEq1:  Iter=  8 NonCon=     1 RMS=3.41D-10 Max=1.45D-09
 LinEq1:  Iter=  9 NonCon=     0 RMS=2.40D-11 Max=1.06D-10
 Linear equations converged to 1.000D-10 1.000D-09 after     9 iterations.
 End of Minotr Frequency-dependent properties file   721 does not exist.
 End of Minotr Frequency-dependent properties file   722 does not exist.
 Calling FoFJK, ICntrl=      2127 FMM=F ISym2X=1 I1Cent= 0 IOpClX= 0 NMat=1 NMatS=1 NMatT=0.
 ***** Axes restored to original set *****
 -------------------------------------------------------------------
 Center     Atomic                   Forces (Hartrees/Bohr)
 Number     Number              X              Y              Z
 -------------------------------------------------------------------
      1        7           0.000000000    0.000000000    0.009523645
      2        1           0.001322321    0.000000000   -0.003174548
      3        1          -0.000661161    0.001145164   -0.003174548
      4        1          -0.000661161   -0.001145164   -0.003174548
 -------------------------------------------------------------------
 Cartesian Forces:  Max     0.009523645 RMS     0.003242667
 -----------------------------------------------------------------------------------------------
                       Internal Coordinate Forces (Hartree/Bohr or radian)
  Cent   Atom   N1       Length/X         N2         Alpha/Y        N3         Beta/Z          J
 -----------------------------------------------------------------------------------------------
         X 
      1  N        1   0.000000(     1)
      2  H        2  -0.000143(     2)      1  -0.006598(     5)
      3  H        2  -0.000143(     3)      1  -0.006598(     6)      3   0.000000(     8)     0
      4  H        2  -0.000143(     4)      1  -0.006598(     7)      4   0.000000(     9)     0
 -----------------------------------------------------------------------------------------------
 Internal  Forces:  Max     0.006597527 RMS     0.003809981

 GradGradGradGradGradGradGradGradGradGradGradGradGradGradGradGradGradGrad
 Berny optimization.
 Search for a local minimum.
 Step number   2 out of a maximum of   20
 All quantities printed in internal units (Hartrees-Bohrs-Radians)
 Update second derivatives using D2CorN and points    1    2
 DE= -1.58D-04 DEPred=-1.63D-04 R= 9.70D-01
 SS=  1.41D+00  RLast= 2.65D-02 DXNew= 5.0454D-01 7.9500D-02
 Trust test= 9.70D-01 RLast= 2.65D-02 DXMaxT set to 3.00D-01
 The second derivative matrix:
                         nxx2       hn3       hn4      dih4       hn5
           nxx2         0.00000
           hn3          0.00000   0.46632
           hn4          0.00000   0.00323   0.46632
           dih4         0.00000   0.00000   0.00000   0.17114
           hn5          0.00000   0.00323   0.00323   0.00000   0.46632
           dih5         0.00000   0.00000   0.00000   0.08557   0.00000
           hnxx3        0.00000  -0.01269  -0.01269   0.00000  -0.01269
           hnxx4        0.00000  -0.01269  -0.01269  -0.06911  -0.01269
           hnxx5        0.00000  -0.01269  -0.01269   0.06911  -0.01269
                         dih5      hnxx3     hnxx4     hnxx5
           dih5         0.17114
           hnxx3        0.06911   0.11170
           hnxx4       -0.06911   0.05588   0.11170
           hnxx5        0.00000   0.05588   0.05588   0.11170
 ITU=  1  0
     Eigenvalues ---    0.00000   0.08557   0.25672   0.46309   0.46309
     Eigenvalues ---    0.472771000.000001000.000001000.00000
 RFO step:  Lambda=-5.96046469D-09 EMin=-2.10172591D-16
 Quartic linear search produced a step of -0.02032.
 Variable       Old X    -DE/DX   Delta X   Delta X   Delta X     New X
                                 (Linear)    (Quad)   (Total)
   nxx2       1.81489   0.00000   0.00000   0.00000   0.00000   1.81489
   hn3        1.92014  -0.00014  -0.00031   0.00000  -0.00031   1.91983
   hn4        1.92014  -0.00014  -0.00031   0.00000  -0.00031   1.91983
   dih4       2.09440   0.00000   0.00000   0.00000   0.00000   2.09440
   hn5        1.92014  -0.00014  -0.00031   0.00000  -0.00031   1.91983
   dih5       2.09440   0.00000   0.00000   0.00000   0.00000   2.09440
  hnxx3       2.00713  -0.00660   0.00000   0.00000   0.00000   2.00713
  hnxx4       2.00713  -0.00660   0.00000   0.00000   0.00000   2.00713
  hnxx5       2.00713  -0.00660   0.00000   0.00000   0.00000   2.00713
         Item               Value     Threshold  Converged?
 Maximum Force            0.000143     0.000450     YES
 RMS     Force            0.000101     0.000300     YES
 Maximum Displacement     0.000311     0.001800     YES
 RMS     Displacement     0.000180     0.001200     YES
 Predicted change in Energy=-6.500825D-08
 Optimization completed.
    -- Stationary point found.
                       ----------------------------
                       !   Optimized Parameters   !
                       ! (Angstroms and Degrees)  !
 ----------------------                            ----------------------
 !      Name          Value   Derivative information (Atomic Units)     !
 ------------------------------------------------------------------------
 !      nxx2         0.9604   -DE/DX =    0.0                           !
 !       hn3         1.0161   -DE/DX =   -0.0001                        !
 !       hn4         1.0161   -DE/DX =   -0.0001                        !
 !      dih4       120.0      -DE/DX =    0.0                           !
 !       hn5         1.0161   -DE/DX =   -0.0001                        !
 !      dih5       120.0      -DE/DX =    0.0                           !
 !      hnxx3      115.0      -DE/DX =   -0.0066                        !
 !      hnxx4      115.0      -DE/DX =   -0.0066                        !
 !      hnxx5      115.0      -DE/DX =   -0.0066                        !
 ------------------------------------------------------------------------
 GradGradGradGradGradGradGradGradGradGradGradGradGradGradGradGradGradGrad

 ---------------------------------------------------------------------------------------------------
                            Z-MATRIX (ANGSTROMS AND DEGREES)
   CD    Cent   Atom    N1       Length/X        N2       Alpha/Y        N3        Beta/Z          J
 ---------------------------------------------------------------------------------------------------
      1         X 
      2      1  N        1   0.960400(     1)
      3      2  H        2   1.016096(     2)      1  115.000(     5)
      4      3  H        2   1.016096(     3)      1  115.000(     6)      3  120.000(     8)      0
      5      4  H        2   1.016096(     4)      1  115.000(     7)      4  120.000(     9)      0
 ---------------------------------------------------------------------------------------------------
                         Z-Matrix orientation:                         
 ---------------------------------------------------------------------
 Center     Atomic      Atomic             Coordinates (Angstroms)
 Number     Number       Type             X           Y           Z
 ---------------------------------------------------------------------
      1         -1           0        0.000000    0.000000    0.000000
      2          7           0        0.000000    0.000000    0.960400
      3          1           0        0.920896    0.000000    1.389821
      4          1           0       -0.460448    0.797519    1.389821
      5          1           0       -0.460448   -0.797519    1.389821
 ---------------------------------------------------------------------
                    Distance matrix (angstroms):
                    1          2          3          4          5
     1  X    0.000000
     2  N    0.960400   0.000000
     3  H    1.667229   1.016096   0.000000
     4  H    1.667229   1.016096   1.595039   0.000000
     5  H    1.667229   1.016096   1.595039   1.595039   0.000000
 Stoichiometry    H3N
 Framework group  C3V[C3(N),3SGV(H)]
 Deg. of freedom     2
 Full point group                 C3V     NOp   6
 Largest Abelian subgroup         CS      NOp   2
 Largest concise Abelian subgroup CS      NOp   2
                         Standard orientation:                         
 ---------------------------------------------------------------------
 Center     Atomic      Atomic             Coordinates (Angstroms)
 Number     Number       Type             X           Y           Z
 ---------------------------------------------------------------------
      1          7           0        0.000000    0.000000    0.128826
      2          1           0        0.000000    0.920896   -0.300595
      3          1           0        0.797519   -0.460448   -0.300595
      4          1           0       -0.797519   -0.460448   -0.300595
 ---------------------------------------------------------------------
 Rotational constants (GHZ):    290.3542805    290.3542805    197.1013717

 **********************************************************************

            Population analysis using the SCF density.

 **********************************************************************

 Orbital symmetries:
       Occupied  (A1) (A1) (E) (E) (A1)
       Virtual   (A1) (E) (E) (E) (E) (A1) (E) (E) (A1) (A1) (E)
                 (E) (A1) (A2) (E) (E) (E) (E) (A1) (E) (E) (A1)
                 (E) (E) (A1)
 The electronic state is 1-A1.
 Alpha  occ. eigenvalues --  -15.54333  -1.14073  -0.61471  -0.61471  -0.43099
 Alpha virt. eigenvalues --    0.21880   0.32050   0.32050   0.88688   0.88688
 Alpha virt. eigenvalues --    0.96029   1.15266   1.15266   1.16950   1.38468
 Alpha virt. eigenvalues --    1.68216   1.68216   2.09102   2.41687   2.58614
 Alpha virt. eigenvalues --    2.58614   2.64714   2.64714   3.17512   3.26878
 Alpha virt. eigenvalues --    3.26878   3.57061   3.82810   3.82810   4.29866
          Condensed to atoms (all electrons):
              1          2          3          4
     1  N    6.724595   0.349498   0.349498   0.349498
     2  H    0.349498   0.454105  -0.030650  -0.030650
     3  H    0.349498  -0.030650   0.454105  -0.030650
     4  H    0.349498  -0.030650  -0.030650   0.454105
 Mulliken atomic charges:
              1
     1  N   -0.773090
     2  H    0.257697
     3  H    0.257697
     4  H    0.257697
 Sum of Mulliken atomic charges =   0.00000
 Mulliken charges with hydrogens summed into heavy atoms:
              1
     1  N    0.000000
 Sum of Mulliken charges with hydrogens summed into heavy atoms =   0.00000
 Electronic spatial extent (au):  <R**2>=             26.2049
 Charge=              0.0000 electrons
 Dipole moment (field-independent basis, Debye):
    X=              0.0000    Y=              0.0000    Z=             -2.0559  Tot=              2.0559
 Quadrupole moment (field-independent basis, Debye-Ang):
   XX=             -6.2343   YY=             -6.2343   ZZ=             -8.6979
   XY=              0.0000   XZ=              0.0000   YZ=              0.0000
 Traceless Quadrupole moment (field-independent basis, Debye-Ang):
   XX=              0.8212   YY=              0.8212   ZZ=             -1.6424
   XY=              0.0000   XZ=              0.0000   YZ=              0.0000
 Octapole moment (field-independent basis, Debye-Ang**2):
  XXX=              0.0000  YYY=              0.7971  ZZZ=             -1.8841  XYY=              0.0000
  XXY=             -0.7971  XXZ=             -1.0094  XZZ=              0.0000  YZZ=              0.0000
  YYZ=             -1.0094  XYZ=              0.0000
 Hexadecapole moment (field-independent basis, Debye-Ang**3):
 XXXX=             -9.5267 YYYY=             -9.5267 ZZZZ=             -9.9440 XXXY=              0.0000
 XXXZ=              0.0000 YYYX=              0.0000 YYYZ=             -0.3583 ZZZX=              0.0000
 ZZZY=              0.0000 XXYY=             -3.1756 XXZZ=             -3.2310 YYZZ=             -3.2310
 XXYZ=              0.3583 YYXZ=              0.0000 ZZXY=              0.0000
 N-N= 1.193197495626D+01 E-N=-1.556178951954D+02  KE= 5.605450665035D+01
 Symmetry A'   KE= 5.347276781576D+01
 Symmetry A"   KE= 2.581738834587D+00
 1\1\GINC-NISER-THINKCENTRE-M93P\POpt\RMP2-FC\6-31G(d,p)\H3N1\STUDENT\0
 4-Mar-2021\1\\# mp2/6-31g** opt=z-matrix\\si\\0,1\X\N,1,nxx2\H,2,hn3,1
 ,hnxx3\H,2,hn4,1,hnxx4,3,dih4,0\H,2,hn5,1,hnxx5,4,dih5,0\\nxx2=0.9604\
 hn3=1.01609629\hn4=1.01609629\dih4=120.\hn5=1.01609629\dih5=120.\hnxx3
 =115.\hnxx4=115.\hnxx5=115.\\Version=EM64L-G09RevC.01\State=1-A1\HF=-5
 6.1941923\MP2=-56.3828321\RMSD=8.641e-09\RMSF=3.243e-03\Dipole=0.,0.,0
 .7867284\PG=C03V [C3(N1),3SGV(H1)]\\@


 MOM AND DAD WENT TO ALPHA CENTAURI AND ALL
 I GOT WAS THIS DUMB T-SHIRT.
 Job cpu time:  0 days  0 hours  0 minutes  2.1 seconds.
 File lengths (MBytes):  RWF=      5 Int=      0 D2E=      0 Chk=      1 Scr=      1
 Normal termination of Gaussian 09 at Thu Mar  4 15:55:28 2021.
