 Entering Gaussian System, Link 0=g09
 Input=m125.com
 Output=m125.log
 Initial command:
 /home/student/g09/l1.exe /home/student/singh/4/a/Gau-30822.inp -scrdir=/home/student/singh/4/a/
 Entering Link 1 = /home/student/g09/l1.exe PID=     30825.
  
 Copyright (c) 1988,1990,1992,1993,1995,1998,2003,2009,2011,
            Gaussian, Inc.  All Rights Reserved.
  
 This is part of the Gaussian(R) 09 program.  It is based on
 the Gaussian(R) 03 system (copyright 2003, Gaussian, Inc.),
 the Gaussian(R) 98 system (copyright 1998, Gaussian, Inc.),
 the Gaussian(R) 94 system (copyright 1995, Gaussian, Inc.),
 the Gaussian 92(TM) system (copyright 1992, Gaussian, Inc.),
 the Gaussian 90(TM) system (copyright 1990, Gaussian, Inc.),
 the Gaussian 88(TM) system (copyright 1988, Gaussian, Inc.),
 the Gaussian 86(TM) system (copyright 1986, Carnegie Mellon
 University), and the Gaussian 82(TM) system (copyright 1983,
 Carnegie Mellon University). Gaussian is a federally registered
 trademark of Gaussian, Inc.
  
 This software contains proprietary and confidential information,
 including trade secrets, belonging to Gaussian, Inc.
  
 This software is provided under written license and may be
 used, copied, transmitted, or stored only in accord with that
 written license.
  
 The following legend is applicable only to US Government
 contracts under FAR:
  
                    RESTRICTED RIGHTS LEGEND
  
 Use, reproduction and disclosure by the US Government is
 subject to restrictions as set forth in subparagraphs (a)
 and (c) of the Commercial Computer Software - Restricted
 Rights clause in FAR 52.227-19.
  
 Gaussian, Inc.
 340 Quinnipiac St., Bldg. 40, Wallingford CT 06492
  
  
 ---------------------------------------------------------------
 Warning -- This program may not be used in any manner that
 competes with the business of Gaussian, Inc. or will provide
 assistance to any competitor of Gaussian, Inc.  The licensee
 of this program is prohibited from giving any competitor of
 Gaussian, Inc. access to this program.  By using this program,
 the user acknowledges that Gaussian, Inc. is engaged in the
 business of creating and licensing software in the field of
 computational chemistry and represents and warrants to the
 licensee that it is not a competitor of Gaussian, Inc. and that
 it will not use this program in any manner prohibited above.
 ---------------------------------------------------------------
  

 Cite this work as:
 Gaussian 09, Revision C.01,
 M. J. Frisch, G. W. Trucks, H. B. Schlegel, G. E. Scuseria, 
 M. A. Robb, J. R. Cheeseman, G. Scalmani, V. Barone, B. Mennucci, 
 G. A. Petersson, H. Nakatsuji, M. Caricato, X. Li, H. P. Hratchian, 
 A. F. Izmaylov, J. Bloino, G. Zheng, J. L. Sonnenberg, M. Hada, 
 M. Ehara, K. Toyota, R. Fukuda, J. Hasegawa, M. Ishida, T. Nakajima, 
 Y. Honda, O. Kitao, H. Nakai, T. Vreven, J. A. Montgomery, Jr., 
 J. E. Peralta, F. Ogliaro, M. Bearpark, J. J. Heyd, E. Brothers, 
 K. N. Kudin, V. N. Staroverov, T. Keith, R. Kobayashi, J. Normand, 
 K. Raghavachari, A. Rendell, J. C. Burant, S. S. Iyengar, J. Tomasi, 
 M. Cossi, N. Rega, J. M. Millam, M. Klene, J. E. Knox, J. B. Cross, 
 V. Bakken, C. Adamo, J. Jaramillo, R. Gomperts, R. E. Stratmann, 
 O. Yazyev, A. J. Austin, R. Cammi, C. Pomelli, J. W. Ochterski, 
 R. L. Martin, K. Morokuma, V. G. Zakrzewski, G. A. Voth, 
 P. Salvador, J. J. Dannenberg, S. Dapprich, A. D. Daniels, 
 O. Farkas, J. B. Foresman, J. V. Ortiz, J. Cioslowski, 
 and D. J. Fox, Gaussian, Inc., Wallingford CT, 2010.
 
 ******************************************
 Gaussian 09:  EM64L-G09RevC.01 23-Sep-2011
                 4-Mar-2021 
 ******************************************
 --------------------------
 # mp2/6-31g** opt=z-matrix
 --------------------------
 1/10=7,18=40,38=1/1,3;
 2/12=2,17=6,18=5,29=3,40=1/2;
 3/5=1,6=6,7=101,11=9,16=1,25=1,30=1,71=1/1,2,3;
 4//1;
 5/5=2,38=5/2;
 8/6=4,10=2/1;
 9/15=2,16=-3/6;
 10/5=1/2;
 6/7=2,8=2,9=2,10=2/1;
 7/12=2,29=1/1,2,3,16;
 1/10=7,18=40/3(2);
 2/29=3/2;
 99//99;
 2/29=3/2;
 3/5=1,6=6,7=101,11=9,16=1,25=1,30=1,71=1/1,2,3;
 4/5=5,16=3/1;
 5/5=2,38=5/2;
 8/6=4,10=2/1;
 9/15=2,16=-3/6;
 10/5=1/2;
 7/12=2/1,2,3,16;
 1/18=40/3(-8);
 2/29=3/2;
 6/7=2,8=2,9=2,10=2/1;
 99//99;
 --
 si
 --
 Charge =  0 Multiplicity = 1
 Symbolic Z-Matrix:
 xx
 n                    1    nxx2
 h                    2    hn3      1    hnxx3
 h                    2    hn4      1    hnxx4    3    dih4     0
 h                    2    hn5      1    hnxx5    4    dih5     0
       Variables:
  nxx2                  0.9604                   
  hn3                   1.008                    
  hn4                   1.008                    
  dih4                120.                       
  hn5                   1.008                    
  dih5                120.                       
       Constants:
  hnxx3               125.                       
  hnxx4               125.                       
  hnxx5               125.                       
 

 GradGradGradGradGradGradGradGradGradGradGradGradGradGradGradGradGradGrad
 Berny optimization.
 Initialization pass.
                       ----------------------------
                       !    Initial Parameters    !
                       ! (Angstroms and Degrees)  !
 ----------------------                            ----------------------
 !      Name          Value   Derivative information (Atomic Units)     !
 ------------------------------------------------------------------------
 !      nxx2         0.9604   estimate D2E/DX2                          !
 !       hn3         1.008    estimate D2E/DX2                          !
 !       hn4         1.008    estimate D2E/DX2                          !
 !      dih4       120.0      estimate D2E/DX2                          !
 !       hn5         1.008    estimate D2E/DX2                          !
 !      dih5       120.0      estimate D2E/DX2                          !
 !      hnxx3      125.0      Frozen                                    !
 !      hnxx4      125.0      Frozen                                    !
 !      hnxx5      125.0      Frozen                                    !
 ------------------------------------------------------------------------
 Trust Radius=3.00D-01 FncErr=1.00D-07 GrdErr=1.00D-07
 Number of steps in this run=     20 maximum allowed number of steps=    100.
 GradGradGradGradGradGradGradGradGradGradGradGradGradGradGradGradGradGrad

 ---------------------------------------------------------------------------------------------------
                            Z-MATRIX (ANGSTROMS AND DEGREES)
   CD    Cent   Atom    N1       Length/X        N2       Alpha/Y        N3        Beta/Z          J
 ---------------------------------------------------------------------------------------------------
      1         X 
      2      1  N        1   0.960400(     1)
      3      2  H        2   1.008000(     2)      1  125.000(     5)
      4      3  H        2   1.008000(     3)      1  125.000(     6)      3  120.000(     8)      0
      5      4  H        2   1.008000(     4)      1  125.000(     7)      4  120.000(     9)      0
 ---------------------------------------------------------------------------------------------------
                         Z-Matrix orientation:                         
 ---------------------------------------------------------------------
 Center     Atomic      Atomic             Coordinates (Angstroms)
 Number     Number       Type             X           Y           Z
 ---------------------------------------------------------------------
      1         -1           0        0.000000    0.000000    0.000000
      2          7           0        0.000000    0.000000    0.960400
      3          1           0        0.825705    0.000000    1.538565
      4          1           0       -0.412853    0.715082    1.538565
      5          1           0       -0.412853   -0.715082    1.538565
 ---------------------------------------------------------------------
                    Distance matrix (angstroms):
                    1          2          3          4          5
     1  X    0.000000
     2  N    0.960400   0.000000
     3  H    1.746130   1.008000   0.000000
     4  H    1.746130   1.008000   1.430163   0.000000
     5  H    1.746130   1.008000   1.430163   1.430163   0.000000
 Stoichiometry    H3N
 Framework group  C3V[C3(N),3SGV(H)]
 Deg. of freedom     2
 Full point group                 C3V     NOp   6
 Largest Abelian subgroup         CS      NOp   2
 Largest concise Abelian subgroup CS      NOp   2
                         Standard orientation:                         
 ---------------------------------------------------------------------
 Center     Atomic      Atomic             Coordinates (Angstroms)
 Number     Number       Type             X           Y           Z
 ---------------------------------------------------------------------
      1          7           0        0.000000    0.000000    0.173450
      2          1           0        0.000000    0.825705   -0.404716
      3          1           0        0.715082   -0.412853   -0.404716
      4          1           0       -0.715082   -0.412853   -0.404716
 ---------------------------------------------------------------------
 Rotational constants (GHZ):    271.4335131    271.4335131    245.1662561
 Standard basis: 6-31G(d,p) (6D, 7F)
 There are    20 symmetry adapted basis functions of A'  symmetry.
 There are    10 symmetry adapted basis functions of A"  symmetry.
 Integral buffers will be    131072 words long.
 Raffenetti 1 integral format.
 Two-electron integral symmetry is turned on.
    30 basis functions,    49 primitive gaussians,    30 cartesian basis functions
     5 alpha electrons        5 beta electrons
       nuclear repulsion energy        12.1345602667 Hartrees.
 NAtoms=    4 NActive=    4 NUniq=    2 SFac= 4.00D+00 NAtFMM=   60 NAOKFM=F Big=F
 One-electron integrals computed using PRISM.
 NBasis=    30 RedAO= T  NBF=    20    10
 NBsUse=    30 1.00D-06 NBFU=    20    10
 Harris functional with IExCor=  205 diagonalized for initial guess.
 ExpMin= 1.61D-01 ExpMax= 4.17D+03 ExpMxC= 6.27D+02 IAcc=1 IRadAn=         1 AccDes= 0.00D+00
 HarFok:  IExCor=  205 AccDes= 0.00D+00 IRadAn=         1 IDoV= 1
 ScaDFX=  1.000000  1.000000  1.000000  1.000000
 FoFCou: FMM=F IPFlag=           0 FMFlag=      100000 FMFlg1=           0
         NFxFlg=           0 DoJE=T BraDBF=F KetDBF=T FulRan=T
         Omega=  0.000000  0.000000  1.000000  0.000000  0.000000 ICntrl=     500 IOpCl=  0
         NMat0=    1 NMatS0=    1 NMatT0=    0 NMatD0=    1 NMtDS0=    0 NMtDT0=    0
         I1Cent=           4 NGrid=           0.
 Petite list used in FoFCou.
 Initial guess orbital symmetries:
       Occupied  (A1) (A1) (E) (E) (A1)
       Virtual   (A1) (E) (E) (E) (E) (A1) (E) (E) (A1) (A1) (E)
                 (E) (A1) (E) (E) (A2) (E) (E) (E) (E) (A1) (A1)
                 (E) (E) (A1)
 The electronic state of the initial guess is 1-A1.
 Requested convergence on RMS density matrix=1.00D-08 within 128 cycles.
 Requested convergence on MAX density matrix=1.00D-06.
 Requested convergence on             energy=1.00D-06.
 No special actions if energy rises.
 Keep R1 ints in memory in canonical form, NReq=949711.
 SCF Done:  E(RHF) =  -56.1762702447     A.U. after   10 cycles
             Convg  =    0.1446D-08             -V/T =  2.0002
 ExpMin= 1.61D-01 ExpMax= 4.17D+03 ExpMxC= 6.27D+02 IAcc=3 IRadAn=         5 AccDes= 0.00D+00
 HarFok:  IExCor=  205 AccDes= 0.00D+00 IRadAn=         5 IDoV=-2
 ScaDFX=  1.000000  1.000000  1.000000  1.000000
 Range of M.O.s used for correlation:     2    30
 NBasis=    30 NAE=     5 NBE=     5 NFC=     1 NFV=     0
 NROrb=     29 NOA=     4 NOB=     4 NVA=    25 NVB=    25
 Fully direct method using O(ONN) memory.
 JobTyp=1 Pass  1:  I=   2 to   5 NPSUse=  1 ParTrn=F ParDer=F DoDerP=T.
 Spin components of T(2) and E(2):
     alpha-alpha T2 =       0.6305450505D-02 E2=     -0.2149944211D-01
     alpha-beta  T2 =       0.4286207536D-01 E2=     -0.1483204275D+00
     beta-beta   T2 =       0.6305450505D-02 E2=     -0.2149944211D-01
 ANorm=    0.1027362145D+01
 E2 =    -0.1913193118D+00 EUMP2 =    -0.56367589556437D+02
          IDoAtm=1111
          Differentiating once with respect to electric field.
                with respect to dipole field.
          Differentiating once with respect to nuclear coordinates.
          Keep R1 ints in memory in canonical form, NReq=928986.
          There are     1 degrees of freedom in the 1st order CPHF.  IDoFFX=0.
 LinEq1:  Iter=  0 NonCon=     1 RMS=4.56D-03 Max=2.28D-02
 AX will form     1 AO Fock derivatives at one time.
 LinEq1:  Iter=  1 NonCon=     1 RMS=1.34D-03 Max=8.52D-03
 LinEq1:  Iter=  2 NonCon=     1 RMS=4.59D-04 Max=2.73D-03
 LinEq1:  Iter=  3 NonCon=     1 RMS=4.57D-05 Max=1.77D-04
 LinEq1:  Iter=  4 NonCon=     1 RMS=4.50D-06 Max=2.98D-05
 LinEq1:  Iter=  5 NonCon=     1 RMS=6.88D-07 Max=3.37D-06
 LinEq1:  Iter=  6 NonCon=     1 RMS=5.74D-08 Max=2.59D-07
 LinEq1:  Iter=  7 NonCon=     1 RMS=4.81D-09 Max=2.41D-08
 LinEq1:  Iter=  8 NonCon=     1 RMS=3.68D-10 Max=1.53D-09
 LinEq1:  Iter=  9 NonCon=     0 RMS=2.47D-11 Max=1.42D-10
 Linear equations converged to 1.000D-10 1.000D-09 after     9 iterations.
 End of Minotr Frequency-dependent properties file   721 does not exist.
 End of Minotr Frequency-dependent properties file   722 does not exist.

 **********************************************************************

            Population analysis using the SCF density.

 **********************************************************************

 Orbital symmetries:
       Occupied  (A1) (A1) (E) (E) (A1)
       Virtual   (A1) (E) (E) (E) (E) (A1) (E) (E) (A1) (A1) (E)
                 (E) (A1) (E) (E) (A2) (E) (E) (E) (E) (A1) (A1)
                 (E) (E) (A1)
 The electronic state is 1-A1.
 Alpha  occ. eigenvalues --  -15.55218  -1.17579  -0.59818  -0.59818  -0.47254
 Alpha virt. eigenvalues --    0.20964   0.31758   0.31758   0.86193   0.86193
 Alpha virt. eigenvalues --    0.94659   1.14840   1.14840   1.19302   1.60166
 Alpha virt. eigenvalues --    1.64868   1.64868   1.90131   2.51844   2.51844
 Alpha virt. eigenvalues --    2.55956   2.77525   2.77525   3.11971   3.11971
 Alpha virt. eigenvalues --    3.35073   3.56140   3.88707   3.88707   4.22433
          Condensed to atoms (all electrons):
              1          2          3          4
     1  N    6.691035   0.339503   0.339503   0.339503
     2  H    0.339503   0.506006  -0.041012  -0.041012
     3  H    0.339503  -0.041012   0.506006  -0.041012
     4  H    0.339503  -0.041012  -0.041012   0.506006
 Mulliken atomic charges:
              1
     1  N   -0.709545
     2  H    0.236515
     3  H    0.236515
     4  H    0.236515
 Sum of Mulliken atomic charges =   0.00000
 Mulliken charges with hydrogens summed into heavy atoms:
              1
     1  N    0.000000
 Sum of Mulliken charges with hydrogens summed into heavy atoms =   0.00000
 Electronic spatial extent (au):  <R**2>=             26.0102
 Charge=              0.0000 electrons
 Dipole moment (field-independent basis, Debye):
    X=              0.0000    Y=              0.0000    Z=             -2.5034  Tot=              2.5034
 Quadrupole moment (field-independent basis, Debye-Ang):
   XX=             -6.8348   YY=             -6.8348   ZZ=             -8.1189
   XY=              0.0000   XZ=              0.0000   YZ=              0.0000
 Traceless Quadrupole moment (field-independent basis, Debye-Ang):
   XX=              0.4280   YY=              0.4280   ZZ=             -0.8560
   XY=              0.0000   XZ=              0.0000   YZ=              0.0000
 Octapole moment (field-independent basis, Debye-Ang**2):
  XXX=              0.0000  YYY=              0.4320  ZZZ=             -2.4148  XYY=              0.0000
  XXY=             -0.4320  XXZ=             -1.0780  XZZ=              0.0000  YZZ=              0.0000
  YYZ=             -1.0780  XYZ=              0.0000
 Hexadecapole moment (field-independent basis, Debye-Ang**3):
 XXXX=             -9.8005 YYYY=             -9.8005 ZZZZ=            -10.6568 XXXY=              0.0000
 XXXZ=              0.0000 YYYX=              0.0000 YYYZ=             -0.3118 ZZZX=              0.0000
 ZZZY=              0.0000 XXYY=             -3.2668 XXZZ=             -3.2020 YYZZ=             -3.2020
 XXYZ=              0.3118 YYXZ=              0.0000 ZZXY=              0.0000
 N-N= 1.213456026675D+01 E-N=-1.559918927346D+02  KE= 5.616396339038D+01
 Symmetry A'   KE= 5.353403617811D+01
 Symmetry A"   KE= 2.629927212273D+00
 Calling FoFJK, ICntrl=      2127 FMM=F ISym2X=1 I1Cent= 0 IOpClX= 0 NMat=1 NMatS=1 NMatT=0.
 ***** Axes restored to original set *****
 -------------------------------------------------------------------
 Center     Atomic                   Forces (Hartrees/Bohr)
 Number     Number              X              Y              Z
 -------------------------------------------------------------------
      1        7           0.000000000    0.000000000    0.031086709
      2        1           0.034252906    0.000000000   -0.010362236
      3        1          -0.017126453    0.029663887   -0.010362236
      4        1          -0.017126453   -0.029663887   -0.010362236
 -------------------------------------------------------------------
 Cartesian Forces:  Max     0.034252906 RMS     0.020017276
 -----------------------------------------------------------------------------------------------
                       Internal Coordinate Forces (Hartree/Bohr or radian)
  Cent   Atom   N1       Length/X         N2         Alpha/Y        N3         Beta/Z          J
 -----------------------------------------------------------------------------------------------
         X 
      1  N        1   0.000000(     1)
      2  H        2   0.022115(     2)      1  -0.053593(     5)
      3  H        2   0.022115(     3)      1  -0.053593(     6)      3   0.000000(     8)     0
      4  H        2   0.022115(     4)      1  -0.053593(     7)      4   0.000000(     9)     0
 -----------------------------------------------------------------------------------------------
 Internal  Forces:  Max     0.053592607 RMS     0.033472536

 GradGradGradGradGradGradGradGradGradGradGradGradGradGradGradGradGradGrad
 Berny optimization.
 Search for a local minimum.
 Step number   1 out of a maximum of   20
 All quantities printed in internal units (Hartrees-Bohrs-Radians)
 Second derivative matrix not updated -- first step.
 The second derivative matrix:
                         nxx2       hn3       hn4      dih4       hn5
           nxx2         0.00000
           hn3          0.00000   0.46309
           hn4          0.00000   0.00000   0.46309
           dih4         0.00000   0.00000   0.00000   0.10807
           hn5          0.00000   0.00000   0.00000   0.00000   0.46309
           dih5         0.00000   0.00000   0.00000   0.05403   0.00000
           hnxx3        0.00000   0.00000   0.00000   0.00000   0.00000
           hnxx4        0.00000   0.00000   0.00000  -0.06553   0.00000
           hnxx5        0.00000   0.00000   0.00000   0.06553   0.00000
                         dih5      hnxx3     hnxx4     hnxx5
           dih5         0.10807
           hnxx3        0.06553   0.15895
           hnxx4       -0.06553   0.07948   0.15895
           hnxx5        0.00000   0.07948   0.07948   0.15895
 ITU=  0
     Eigenvalues ---    0.00000   0.05403   0.16210   0.46309   0.46309
     Eigenvalues ---    0.463091000.000001000.000001000.00000
 RFO step:  Lambda=-3.14688363D-03 EMin= 1.11022302D-16
 Linear search not attempted -- first point.
 Variable       Old X    -DE/DX   Delta X   Delta X   Delta X     New X
                                 (Linear)    (Quad)   (Total)
   nxx2       1.81489   0.00000   0.00000   0.00000   0.00000   1.81489
   hn3        1.90484   0.02211   0.00000   0.04743   0.04743   1.95228
   hn4        1.90484   0.02211   0.00000   0.04743   0.04743   1.95228
   dih4       2.09440   0.00000   0.00000   0.00000   0.00000   2.09440
   hn5        1.90484   0.02211   0.00000   0.04743   0.04743   1.95228
   dih5       2.09440   0.00000   0.00000   0.00000   0.00000   2.09440
  hnxx3       2.18166  -0.05359   0.00000   0.00000   0.00000   2.18166
  hnxx4       2.18166  -0.05359   0.00000   0.00000   0.00000   2.18166
  hnxx5       2.18166  -0.05359   0.00000   0.00000   0.00000   2.18166
         Item               Value     Threshold  Converged?
 Maximum Force            0.022115     0.000450     NO 
 RMS     Force            0.015638     0.000300     NO 
 Maximum Displacement     0.047433     0.001800     NO 
 RMS     Displacement     0.027385     0.001200     NO 
 Predicted change in Energy=-1.584061D-03
 GradGradGradGradGradGradGradGradGradGradGradGradGradGradGradGradGradGrad

 ---------------------------------------------------------------------------------------------------
                            Z-MATRIX (ANGSTROMS AND DEGREES)
   CD    Cent   Atom    N1       Length/X        N2       Alpha/Y        N3        Beta/Z          J
 ---------------------------------------------------------------------------------------------------
      1         X 
      2      1  N        1   0.960400(     1)
      3      2  H        2   1.033100(     2)      1  125.000(     5)
      4      3  H        2   1.033100(     3)      1  125.000(     6)      3  120.000(     8)      0
      5      4  H        2   1.033100(     4)      1  125.000(     7)      4  120.000(     9)      0
 ---------------------------------------------------------------------------------------------------
                         Z-Matrix orientation:                         
 ---------------------------------------------------------------------
 Center     Atomic      Atomic             Coordinates (Angstroms)
 Number     Number       Type             X           Y           Z
 ---------------------------------------------------------------------
      1         -1           0        0.000000    0.000000    0.000000
      2          7           0        0.000000    0.000000    0.960400
      3          1           0        0.846266    0.000000    1.552962
      4          1           0       -0.423133    0.732888    1.552962
      5          1           0       -0.423133   -0.732888    1.552962
 ---------------------------------------------------------------------
                    Distance matrix (angstroms):
                    1          2          3          4          5
     1  X    0.000000
     2  N    0.960400   0.000000
     3  H    1.768575   1.033100   0.000000
     4  H    1.768575   1.033100   1.465776   0.000000
     5  H    1.768575   1.033100   1.465776   1.465776   0.000000
 Stoichiometry    H3N
 Framework group  C3V[C3(N),3SGV(H)]
 Deg. of freedom     2
 Full point group                 C3V     NOp   6
 Largest Abelian subgroup         CS      NOp   2
 Largest concise Abelian subgroup CS      NOp   2
                         Standard orientation:                         
 ---------------------------------------------------------------------
 Center     Atomic      Atomic             Coordinates (Angstroms)
 Number     Number       Type             X           Y           Z
 ---------------------------------------------------------------------
      1          7           0        0.000000    0.000000    0.177769
      2          1           0        0.000000    0.846266   -0.414793
      3          1           0        0.732888   -0.423133   -0.414793
      4          1           0       -0.732888   -0.423133   -0.414793
 ---------------------------------------------------------------------
 Rotational constants (GHZ):    258.4042386    258.4042386    233.3978550
 Standard basis: 6-31G(d,p) (6D, 7F)
 There are    20 symmetry adapted basis functions of A'  symmetry.
 There are    10 symmetry adapted basis functions of A"  symmetry.
 Integral buffers will be    131072 words long.
 Raffenetti 1 integral format.
 Two-electron integral symmetry is turned on.
    30 basis functions,    49 primitive gaussians,    30 cartesian basis functions
     5 alpha electrons        5 beta electrons
       nuclear repulsion energy        11.8397389161 Hartrees.
 NAtoms=    4 NActive=    4 NUniq=    2 SFac= 4.00D+00 NAtFMM=   60 NAOKFM=F Big=F
 One-electron integrals computed using PRISM.
 NBasis=    30 RedAO= T  NBF=    20    10
 NBsUse=    30 1.00D-06 NBFU=    20    10
 Initial guess read from the read-write file.
 B after Tr=     0.000000    0.000000    0.000000
         Rot=    1.000000    0.000000    0.000000    0.000000 Ang=   0.00 deg.
 Initial guess orbital symmetries:
       Occupied  (A1) (A1) (E) (E) (A1)
       Virtual   (A1) (E) (E) (E) (E) (A1) (E) (E) (A1) (A1) (E)
                 (E) (A1) (E) (E) (A2) (E) (E) (E) (E) (A1) (A1)
                 (E) (E) (A1)
 Harris functional with IExCor=  205 diagonalized for initial guess.
 ExpMin= 1.61D-01 ExpMax= 4.17D+03 ExpMxC= 6.27D+02 IAcc=1 IRadAn=         1 AccDes= 0.00D+00
 HarFok:  IExCor=  205 AccDes= 0.00D+00 IRadAn=         1 IDoV= 1
 ScaDFX=  1.000000  1.000000  1.000000  1.000000
 FoFCou: FMM=F IPFlag=           0 FMFlag=      100000 FMFlg1=           0
         NFxFlg=           0 DoJE=T BraDBF=F KetDBF=T FulRan=T
         Omega=  0.000000  0.000000  1.000000  0.000000  0.000000 ICntrl=     500 IOpCl=  0
         NMat0=    1 NMatS0=    1 NMatT0=    0 NMatD0=    1 NMtDS0=    0 NMtDT0=    0
         I1Cent=           4 NGrid=           0.
 Petite list used in FoFCou.
 Requested convergence on RMS density matrix=1.00D-08 within 128 cycles.
 Requested convergence on MAX density matrix=1.00D-06.
 Requested convergence on             energy=1.00D-06.
 No special actions if energy rises.
 Keep R1 ints in memory in canonical form, NReq=949711.
 SCF Done:  E(RHF) =  -56.1763172430     A.U. after    9 cycles
             Convg  =    0.1241D-08             -V/T =  2.0024
 ExpMin= 1.61D-01 ExpMax= 4.17D+03 ExpMxC= 6.27D+02 IAcc=3 IRadAn=         5 AccDes= 0.00D+00
 HarFok:  IExCor=  205 AccDes= 0.00D+00 IRadAn=         5 IDoV=-2
 ScaDFX=  1.000000  1.000000  1.000000  1.000000
 Range of M.O.s used for correlation:     2    30
 NBasis=    30 NAE=     5 NBE=     5 NFC=     1 NFV=     0
 NROrb=     29 NOA=     4 NOB=     4 NVA=    25 NVB=    25
 Fully direct method using O(ONN) memory.
 JobTyp=1 Pass  1:  I=   2 to   5 NPSUse=  1 ParTrn=F ParDer=F DoDerP=T.
 Spin components of T(2) and E(2):
     alpha-alpha T2 =       0.6454769413D-02 E2=     -0.2158897415D-01
     alpha-beta  T2 =       0.4431200522D-01 E2=     -0.1496611170D+00
     beta-beta   T2 =       0.6454769413D-02 E2=     -0.2158897415D-01
 ANorm=    0.1028212791D+01
 E2 =    -0.1928390653D+00 EUMP2 =    -0.56369156308314D+02
          IDoAtm=1111
          Differentiating once with respect to electric field.
                with respect to dipole field.
          Differentiating once with respect to nuclear coordinates.
          Keep R1 ints in memory in canonical form, NReq=928986.
          There are     1 degrees of freedom in the 1st order CPHF.  IDoFFX=0.
 LinEq1:  Iter=  0 NonCon=     1 RMS=4.88D-03 Max=2.46D-02
 AX will form     1 AO Fock derivatives at one time.
 LinEq1:  Iter=  1 NonCon=     1 RMS=1.51D-03 Max=9.53D-03
 LinEq1:  Iter=  2 NonCon=     1 RMS=5.18D-04 Max=2.99D-03
 LinEq1:  Iter=  3 NonCon=     1 RMS=5.19D-05 Max=1.90D-04
 LinEq1:  Iter=  4 NonCon=     1 RMS=5.88D-06 Max=3.82D-05
 LinEq1:  Iter=  5 NonCon=     1 RMS=8.57D-07 Max=4.09D-06
 LinEq1:  Iter=  6 NonCon=     1 RMS=6.20D-08 Max=2.68D-07
 LinEq1:  Iter=  7 NonCon=     1 RMS=5.26D-09 Max=2.61D-08
 LinEq1:  Iter=  8 NonCon=     1 RMS=4.06D-10 Max=1.67D-09
 LinEq1:  Iter=  9 NonCon=     0 RMS=2.58D-11 Max=1.44D-10
 Linear equations converged to 1.000D-10 1.000D-09 after     9 iterations.
 End of Minotr Frequency-dependent properties file   721 does not exist.
 End of Minotr Frequency-dependent properties file   722 does not exist.
 Calling FoFJK, ICntrl=      2127 FMM=F ISym2X=1 I1Cent= 0 IOpClX= 0 NMat=1 NMatS=1 NMatT=0.
 ***** Axes restored to original set *****
 -------------------------------------------------------------------
 Center     Atomic                   Forces (Hartrees/Bohr)
 Number     Number              X              Y              Z
 -------------------------------------------------------------------
      1        7           0.000000000    0.000000000    0.060854021
      2        1           0.014797457    0.000000000   -0.020284674
      3        1          -0.007398728    0.012814973   -0.020284674
      4        1          -0.007398728   -0.012814973   -0.020284674
 -------------------------------------------------------------------
 Cartesian Forces:  Max     0.060854021 RMS     0.021591877
 -----------------------------------------------------------------------------------------------
                       Internal Coordinate Forces (Hartree/Bohr or radian)
  Cent   Atom   N1       Length/X         N2         Alpha/Y        N3         Beta/Z          J
 -----------------------------------------------------------------------------------------------
         X 
      1  N        1   0.000000(     1)
      2  H        2   0.000487(     2)      1  -0.049009(     5)
      3  H        2   0.000487(     3)      1  -0.049009(     6)      3   0.000000(     8)     0
      4  H        2   0.000487(     4)      1  -0.049009(     7)      4   0.000000(     9)     0
 -----------------------------------------------------------------------------------------------
 Internal  Forces:  Max     0.049009371 RMS     0.028296968

 GradGradGradGradGradGradGradGradGradGradGradGradGradGradGradGradGradGrad
 Berny optimization.
 Search for a local minimum.
 Step number   2 out of a maximum of   20
 All quantities printed in internal units (Hartrees-Bohrs-Radians)
 Update second derivatives using D2CorN and points    1    2
 DE= -1.57D-03 DEPred=-1.58D-03 R= 9.89D-01
 SS=  1.41D+00  RLast= 8.22D-02 DXNew= 5.0454D-01 2.4647D-01
 Trust test= 9.89D-01 RLast= 8.22D-02 DXMaxT set to 3.00D-01
 The second derivative matrix:
                         nxx2       hn3       hn4      dih4       hn5
           nxx2         0.00000
           hn3          0.00000   0.46072
           hn4          0.00000  -0.00237   0.46072
           dih4         0.00000   0.00000   0.00000   0.10807
           hn5          0.00000  -0.00237  -0.00237   0.00000   0.46072
           dih5         0.00000   0.00000   0.00000   0.05403   0.00000
           hnxx3        0.00000  -0.01610  -0.01610   0.00000  -0.01610
           hnxx4        0.00000  -0.01610  -0.01610  -0.06553  -0.01610
           hnxx5        0.00000  -0.01610  -0.01610   0.06553  -0.01610
                         dih5      hnxx3     hnxx4     hnxx5
           dih5         0.10807
           hnxx3        0.06553   0.15895
           hnxx4       -0.06553   0.07948   0.15895
           hnxx5        0.00000   0.07948   0.07948   0.15895
 ITU=  1  0
     Eigenvalues ---    0.00000   0.05403   0.16210   0.45598   0.46309
     Eigenvalues ---    0.463091000.000001000.000001000.00000
 RFO step:  Lambda= 0.00000000D+00 EMin= 1.02739511D-16
 Quartic linear search produced a step of  0.02449.
 Maximum step size (   0.300) exceeded in Quadratic search.
    -- Step size scaled by   0.003
 Variable       Old X    -DE/DX   Delta X   Delta X   Delta X     New X
                                 (Linear)    (Quad)   (Total)
   nxx2       1.81489   0.00000   0.00000   0.30000   0.30000   2.11489
   hn3        1.95228   0.00049   0.00116   0.00000   0.00116   1.95344
   hn4        1.95228   0.00049   0.00116   0.00000   0.00116   1.95344
   dih4       2.09440   0.00000   0.00000   0.00000   0.00000   2.09440
   hn5        1.95228   0.00049   0.00116   0.00000   0.00116   1.95344
   dih5       2.09440   0.00000   0.00000   0.00000   0.00000   2.09440
  hnxx3       2.18166  -0.04901   0.00000   0.00000   0.00000   2.18166
  hnxx4       2.18166  -0.04901   0.00000   0.00000   0.00000   2.18166
  hnxx5       2.18166  -0.04901   0.00000   0.00000   0.00000   2.18166
         Item               Value     Threshold  Converged?
 Maximum Force            0.000487     0.000450     NO 
 RMS     Force            0.000344     0.000300     NO 
 Maximum Displacement     0.300000     0.001800     NO 
 RMS     Displacement     0.100002     0.001200     NO 
 Predicted change in Energy=-7.726693D-07
 GradGradGradGradGradGradGradGradGradGradGradGradGradGradGradGradGradGrad

 ---------------------------------------------------------------------------------------------------
                            Z-MATRIX (ANGSTROMS AND DEGREES)
   CD    Cent   Atom    N1       Length/X        N2       Alpha/Y        N3        Beta/Z          J
 ---------------------------------------------------------------------------------------------------
      1         X 
      2      1  N        1   1.119153(     1)
      3      2  H        2   1.033715(     2)      1  125.000(     5)
      4      3  H        2   1.033715(     3)      1  125.000(     6)      3  120.000(     8)      0
      5      4  H        2   1.033715(     4)      1  125.000(     7)      4  120.000(     9)      0
 ---------------------------------------------------------------------------------------------------
                         Z-Matrix orientation:                         
 ---------------------------------------------------------------------
 Center     Atomic      Atomic             Coordinates (Angstroms)
 Number     Number       Type             X           Y           Z
 ---------------------------------------------------------------------
      1         -1           0        0.000000    0.000000    0.000000
      2          7           0        0.000000    0.000000    1.119153
      3          1           0        0.846770    0.000000    1.712068
      4          1           0       -0.423385    0.733324    1.712068
      5          1           0       -0.423385   -0.733324    1.712068
 ---------------------------------------------------------------------
                    Distance matrix (angstroms):
                    1          2          3          4          5
     1  X    0.000000
     2  N    1.119153   0.000000
     3  H    1.910025   1.033715   0.000000
     4  H    1.910025   1.033715   1.466648   0.000000
     5  H    1.910025   1.033715   1.466648   1.466648   0.000000
 Stoichiometry    H3N
 Framework group  C3V[C3(N),3SGV(H)]
 Deg. of freedom     2
 Full point group                 C3V     NOp   6
 Largest Abelian subgroup         CS      NOp   2
 Largest concise Abelian subgroup CS      NOp   2
                         Standard orientation:                         
 ---------------------------------------------------------------------
 Center     Atomic      Atomic             Coordinates (Angstroms)
 Number     Number       Type             X           Y           Z
 ---------------------------------------------------------------------
      1          7           0        0.000000    0.000000    0.177874
      2          1           0        0.000000    0.846770   -0.415040
      3          1           0        0.733324   -0.423385   -0.415040
      4          1           0       -0.733324   -0.423385   -0.415040
 ---------------------------------------------------------------------
 Rotational constants (GHZ):    258.0970297    258.0970297    233.1203754
 Standard basis: 6-31G(d,p) (6D, 7F)
 There are    20 symmetry adapted basis functions of A'  symmetry.
 There are    10 symmetry adapted basis functions of A"  symmetry.
 Integral buffers will be    131072 words long.
 Raffenetti 1 integral format.
 Two-electron integral symmetry is turned on.
    30 basis functions,    49 primitive gaussians,    30 cartesian basis functions
     5 alpha electrons        5 beta electrons
       nuclear repulsion energy        11.8326988703 Hartrees.
 NAtoms=    4 NActive=    4 NUniq=    2 SFac= 4.00D+00 NAtFMM=   60 NAOKFM=F Big=F
 One-electron integrals computed using PRISM.
 NBasis=    30 RedAO= T  NBF=    20    10
 NBsUse=    30 1.00D-06 NBFU=    20    10
 Initial guess read from the read-write file.
 B after Tr=     0.000000    0.000000    0.000000
         Rot=    1.000000    0.000000    0.000000    0.000000 Ang=   0.00 deg.
 Initial guess orbital symmetries:
       Occupied  (A1) (A1) (E) (E) (A1)
       Virtual   (A1) (E) (E) (E) (E) (A1) (E) (E) (A1) (A1) (E)
                 (E) (A1) (E) (E) (A2) (E) (E) (E) (E) (A1) (A1)
                 (E) (E) (A1)
 Harris functional with IExCor=  205 diagonalized for initial guess.
 ExpMin= 1.61D-01 ExpMax= 4.17D+03 ExpMxC= 6.27D+02 IAcc=1 IRadAn=         1 AccDes= 0.00D+00
 HarFok:  IExCor=  205 AccDes= 0.00D+00 IRadAn=         1 IDoV= 1
 ScaDFX=  1.000000  1.000000  1.000000  1.000000
 FoFCou: FMM=F IPFlag=           0 FMFlag=      100000 FMFlg1=           0
         NFxFlg=           0 DoJE=T BraDBF=F KetDBF=T FulRan=T
         Omega=  0.000000  0.000000  1.000000  0.000000  0.000000 ICntrl=     500 IOpCl=  0
         NMat0=    1 NMatS0=    1 NMatT0=    0 NMatD0=    1 NMtDS0=    0 NMtDT0=    0
         I1Cent=           4 NGrid=           0.
 Petite list used in FoFCou.
 Requested convergence on RMS density matrix=1.00D-08 within 128 cycles.
 Requested convergence on MAX density matrix=1.00D-06.
 Requested convergence on             energy=1.00D-06.
 No special actions if energy rises.
 Keep R1 ints in memory in canonical form, NReq=949711.
 SCF Done:  E(RHF) =  -56.1762801836     A.U. after    7 cycles
             Convg  =    0.3688D-08             -V/T =  2.0025
 ExpMin= 1.61D-01 ExpMax= 4.17D+03 ExpMxC= 6.27D+02 IAcc=3 IRadAn=         5 AccDes= 0.00D+00
 HarFok:  IExCor=  205 AccDes= 0.00D+00 IRadAn=         5 IDoV=-2
 ScaDFX=  1.000000  1.000000  1.000000  1.000000
 Range of M.O.s used for correlation:     2    30
 NBasis=    30 NAE=     5 NBE=     5 NFC=     1 NFV=     0
 NROrb=     29 NOA=     4 NOB=     4 NVA=    25 NVB=    25
 Fully direct method using O(ONN) memory.
 JobTyp=1 Pass  1:  I=   2 to   5 NPSUse=  1 ParTrn=F ParDer=F DoDerP=T.
 Spin components of T(2) and E(2):
     alpha-alpha T2 =       0.6458495971D-02 E2=     -0.2159125064D-01
     alpha-beta  T2 =       0.4434845001D-01 E2=     -0.1496944697D+00
     beta-beta   T2 =       0.6458495971D-02 E2=     -0.2159125064D-01
 ANorm=    0.1028234138D+01
 E2 =    -0.1928769710D+00 EUMP2 =    -0.56369157154583D+02
          IDoAtm=1111
          Differentiating once with respect to electric field.
                with respect to dipole field.
          Differentiating once with respect to nuclear coordinates.
          Keep R1 ints in memory in canonical form, NReq=928986.
          There are     1 degrees of freedom in the 1st order CPHF.  IDoFFX=0.
 LinEq1:  Iter=  0 NonCon=     1 RMS=4.89D-03 Max=2.46D-02
 AX will form     1 AO Fock derivatives at one time.
 LinEq1:  Iter=  1 NonCon=     1 RMS=1.52D-03 Max=9.56D-03
 LinEq1:  Iter=  2 NonCon=     1 RMS=5.19D-04 Max=3.00D-03
 LinEq1:  Iter=  3 NonCon=     1 RMS=5.20D-05 Max=1.91D-04
 LinEq1:  Iter=  4 NonCon=     1 RMS=5.91D-06 Max=3.84D-05
 LinEq1:  Iter=  5 NonCon=     1 RMS=8.61D-07 Max=4.11D-06
 LinEq1:  Iter=  6 NonCon=     1 RMS=6.21D-08 Max=2.68D-07
 LinEq1:  Iter=  7 NonCon=     1 RMS=5.27D-09 Max=2.61D-08
 LinEq1:  Iter=  8 NonCon=     1 RMS=4.07D-10 Max=1.68D-09
 LinEq1:  Iter=  9 NonCon=     0 RMS=2.58D-11 Max=1.44D-10
 Linear equations converged to 1.000D-10 1.000D-09 after     9 iterations.
 End of Minotr Frequency-dependent properties file   721 does not exist.
 End of Minotr Frequency-dependent properties file   722 does not exist.
 Calling FoFJK, ICntrl=      2127 FMM=F ISym2X=1 I1Cent= 0 IOpClX= 0 NMat=1 NMatS=1 NMatT=0.
 ***** Axes restored to original set *****
 -------------------------------------------------------------------
 Center     Atomic                   Forces (Hartrees/Bohr)
 Number     Number              X              Y              Z
 -------------------------------------------------------------------
      1        7           0.000000000    0.000000000    0.061516692
      2        1           0.014357611    0.000000000   -0.020505564
      3        1          -0.007178805    0.012434056   -0.020505564
      4        1          -0.007178805   -0.012434056   -0.020505564
 -------------------------------------------------------------------
 Cartesian Forces:  Max     0.061516692 RMS     0.021725870
 -----------------------------------------------------------------------------------------------
                       Internal Coordinate Forces (Hartree/Bohr or radian)
  Cent   Atom   N1       Length/X         N2         Alpha/Y        N3         Beta/Z          J
 -----------------------------------------------------------------------------------------------
         X 
      1  N        1   0.000000(     1)
      2  H        2   0.000000(     2)      1  -0.048899(     5)
      3  H        2   0.000000(     3)      1  -0.048899(     6)      3   0.000000(     8)     0
      4  H        2   0.000000(     4)      1  -0.048899(     7)      4   0.000000(     9)     0
 -----------------------------------------------------------------------------------------------
 Internal  Forces:  Max     0.048899167 RMS     0.028231947

 GradGradGradGradGradGradGradGradGradGradGradGradGradGradGradGradGradGrad
 Berny optimization.
 Search for a local minimum.
 Step number   3 out of a maximum of   20
 All quantities printed in internal units (Hartrees-Bohrs-Radians)
 Update second derivatives using D2CorN and points    1    2    3
 DE= -8.46D-07 DEPred=-7.73D-07 R= 1.10D+00
 Trust test= 1.10D+00 RLast= 3.00D-01 DXMaxT set to 3.00D-01
 The second derivative matrix:
                         nxx2       hn3       hn4      dih4       hn5
           nxx2         0.00000
           hn3         -0.00010   0.46070
           hn4         -0.00010  -0.00239   0.46070
           dih4         0.00000   0.00000   0.00000   0.10807
           hn5         -0.00010  -0.00239  -0.00239   0.00000   0.46070
           dih5         0.00000   0.00000   0.00000   0.05403   0.00000
           hnxx3       -0.00190  -0.01668  -0.01668   0.00000  -0.01668
           hnxx4       -0.00190  -0.01668  -0.01668  -0.06553  -0.01668
           hnxx5       -0.00190  -0.01668  -0.01668   0.06553  -0.01668
                         dih5      hnxx3     hnxx4     hnxx5
           dih5         0.10807
           hnxx3        0.06553   0.15895
           hnxx4       -0.06553   0.07948   0.15895
           hnxx5        0.00000   0.07948   0.07948   0.15895
 ITU=  0  1  0
     Eigenvalues ---    0.00000   0.05403   0.16210   0.45591   0.46309
     Eigenvalues ---    0.463091000.000001000.000001000.00000
 RFO step:  Lambda= 0.00000000D+00 EMin= 6.94169434D-07
 Quartic linear search produced a step of -0.00091.
 Variable       Old X    -DE/DX   Delta X   Delta X   Delta X     New X
                                 (Linear)    (Quad)   (Total)
   nxx2       2.11489   0.00000  -0.00027  -0.00002  -0.00029   2.11460
   hn3        1.95344   0.00000   0.00000   0.00000   0.00000   1.95344
   hn4        1.95344   0.00000   0.00000   0.00000   0.00000   1.95344
   dih4       2.09440   0.00000   0.00000   0.00000   0.00000   2.09440
   hn5        1.95344   0.00000   0.00000   0.00000   0.00000   1.95344
   dih5       2.09440   0.00000   0.00000   0.00000   0.00000   2.09440
  hnxx3       2.18166  -0.04890   0.00000   0.00000   0.00000   2.18166
  hnxx4       2.18166  -0.04890   0.00000   0.00000   0.00000   2.18166
  hnxx5       2.18166  -0.04890   0.00000   0.00000   0.00000   2.18166
         Item               Value     Threshold  Converged?
 Maximum Force            0.000000     0.000450     YES
 RMS     Force            0.000000     0.000300     YES
 Maximum Displacement     0.000290     0.001800     YES
 RMS     Displacement     0.000097     0.001200     YES
 Predicted change in Energy=-7.014145D-13
 Optimization completed.
    -- Stationary point found.
                       ----------------------------
                       !   Optimized Parameters   !
                       ! (Angstroms and Degrees)  !
 ----------------------                            ----------------------
 !      Name          Value   Derivative information (Atomic Units)     !
 ------------------------------------------------------------------------
 !      nxx2         1.1192   -DE/DX =    0.0                           !
 !       hn3         1.0337   -DE/DX =    0.0                           !
 !       hn4         1.0337   -DE/DX =    0.0                           !
 !      dih4       120.0      -DE/DX =    0.0                           !
 !       hn5         1.0337   -DE/DX =    0.0                           !
 !      dih5       120.0      -DE/DX =    0.0                           !
 !      hnxx3      125.0      -DE/DX =   -0.0489                        !
 !      hnxx4      125.0      -DE/DX =   -0.0489                        !
 !      hnxx5      125.0      -DE/DX =   -0.0489                        !
 ------------------------------------------------------------------------
 GradGradGradGradGradGradGradGradGradGradGradGradGradGradGradGradGradGrad

 ---------------------------------------------------------------------------------------------------
                            Z-MATRIX (ANGSTROMS AND DEGREES)
   CD    Cent   Atom    N1       Length/X        N2       Alpha/Y        N3        Beta/Z          J
 ---------------------------------------------------------------------------------------------------
      1         X 
      2      1  N        1   1.119153(     1)
      3      2  H        2   1.033715(     2)      1  125.000(     5)
      4      3  H        2   1.033715(     3)      1  125.000(     6)      3  120.000(     8)      0
      5      4  H        2   1.033715(     4)      1  125.000(     7)      4  120.000(     9)      0
 ---------------------------------------------------------------------------------------------------
                         Z-Matrix orientation:                         
 ---------------------------------------------------------------------
 Center     Atomic      Atomic             Coordinates (Angstroms)
 Number     Number       Type             X           Y           Z
 ---------------------------------------------------------------------
      1         -1           0        0.000000    0.000000    0.000000
      2          7           0        0.000000    0.000000    1.119153
      3          1           0        0.846770    0.000000    1.712068
      4          1           0       -0.423385    0.733324    1.712068
      5          1           0       -0.423385   -0.733324    1.712068
 ---------------------------------------------------------------------
                    Distance matrix (angstroms):
                    1          2          3          4          5
     1  X    0.000000
     2  N    1.119153   0.000000
     3  H    1.910025   1.033715   0.000000
     4  H    1.910025   1.033715   1.466648   0.000000
     5  H    1.910025   1.033715   1.466648   1.466648   0.000000
 Stoichiometry    H3N
 Framework group  C3V[C3(N),3SGV(H)]
 Deg. of freedom     2
 Full point group                 C3V     NOp   6
 Largest Abelian subgroup         CS      NOp   2
 Largest concise Abelian subgroup CS      NOp   2
                         Standard orientation:                         
 ---------------------------------------------------------------------
 Center     Atomic      Atomic             Coordinates (Angstroms)
 Number     Number       Type             X           Y           Z
 ---------------------------------------------------------------------
      1          7           0        0.000000    0.000000    0.177874
      2          1           0        0.000000    0.846770   -0.415040
      3          1           0        0.733324   -0.423385   -0.415040
      4          1           0       -0.733324   -0.423385   -0.415040
 ---------------------------------------------------------------------
 Rotational constants (GHZ):    258.0970297    258.0970297    233.1203754

 **********************************************************************

            Population analysis using the SCF density.

 **********************************************************************

 Orbital symmetries:
       Occupied  (A1) (A1) (E) (E) (A1)
       Virtual   (A1) (E) (E) (E) (E) (A1) (E) (E) (A1) (A1) (E)
                 (E) (A1) (E) (E) (A2) (E) (E) (E) (E) (A1) (A1)
                 (E) (E) (A1)
 The electronic state is 1-A1.
 Alpha  occ. eigenvalues --  -15.56169  -1.16084  -0.58923  -0.58923  -0.47200
 Alpha virt. eigenvalues --    0.20613   0.30971   0.30971   0.86576   0.86576
 Alpha virt. eigenvalues --    0.94771   1.13500   1.13500   1.16616   1.59573
 Alpha virt. eigenvalues --    1.65024   1.65024   1.88299   2.48087   2.48087
 Alpha virt. eigenvalues --    2.52700   2.73474   2.73474   3.08209   3.08209
 Alpha virt. eigenvalues --    3.29267   3.50494   3.84337   3.84337   4.21289
          Condensed to atoms (all electrons):
              1          2          3          4
     1  N    6.715635   0.331428   0.331428   0.331428
     2  H    0.331428   0.511038  -0.039553  -0.039553
     3  H    0.331428  -0.039553   0.511038  -0.039553
     4  H    0.331428  -0.039553  -0.039553   0.511038
 Mulliken atomic charges:
              1
     1  N   -0.709920
     2  H    0.236640
     3  H    0.236640
     4  H    0.236640
 Sum of Mulliken atomic charges =   0.00000
 Mulliken charges with hydrogens summed into heavy atoms:
              1
     1  N    0.000000
 Sum of Mulliken charges with hydrogens summed into heavy atoms =   0.00000
 Electronic spatial extent (au):  <R**2>=             26.6230
 Charge=              0.0000 electrons
 Dipole moment (field-independent basis, Debye):
    X=              0.0000    Y=              0.0000    Z=             -2.4958  Tot=              2.4958
 Quadrupole moment (field-independent basis, Debye-Ang):
   XX=             -6.8791   YY=             -6.8791   ZZ=             -8.1727
   XY=              0.0000   XZ=              0.0000   YZ=              0.0000
 Traceless Quadrupole moment (field-independent basis, Debye-Ang):
   XX=              0.4312   YY=              0.4312   ZZ=             -0.8624
   XY=              0.0000   XZ=              0.0000   YZ=              0.0000
 Octapole moment (field-independent basis, Debye-Ang**2):
  XXX=              0.0000  YYY=              0.4754  ZZZ=             -2.3542  XYY=              0.0000
  XXY=             -0.4754  XXZ=             -1.0945  XZZ=              0.0000  YZZ=              0.0000
  YYZ=             -1.0945  XYZ=              0.0000
 Hexadecapole moment (field-independent basis, Debye-Ang**3):
 XXXX=            -10.1794 YYYY=            -10.1794 ZZZZ=            -10.9472 XXXY=              0.0000
 XXXZ=              0.0000 YYYX=              0.0000 YYYZ=             -0.3434 ZZZX=              0.0000
 ZZZY=              0.0000 XXYY=             -3.3931 XXZZ=             -3.2964 YYZZ=             -3.2964
 XXYZ=              0.3434 YYXZ=              0.0000 ZZXY=              0.0000
 N-N= 1.183269887033D+01 E-N=-1.553084566785D+02  KE= 5.603647334458D+01
 Symmetry A'   KE= 5.345478844419D+01
 Symmetry A"   KE= 2.581684900393D+00
 1\1\GINC-NISER-THINKCENTRE-M93P\POpt\RMP2-FC\6-31G(d,p)\H3N1\STUDENT\0
 4-Mar-2021\1\\# mp2/6-31g** opt=z-matrix\\si\\0,1\X\N,1,nxx2\H,2,hn3,1
 ,hnxx3\H,2,hn4,1,hnxx4,3,dih4,0\H,2,hn5,1,hnxx5,4,dih5,0\\nxx2=1.11915
 316\hn3=1.03371487\hn4=1.03371487\dih4=120.\hn5=1.03371487\dih5=120.\h
 nxx3=125.\hnxx4=125.\hnxx5=125.\\Version=EM64L-G09RevC.01\State=1-A1\H
 F=-56.1762802\MP2=-56.3691572\RMSD=3.688e-09\RMSF=2.173e-02\Dipole=0.,
 0.,0.9363217\PG=C03V [C3(N1),3SGV(H1)]\\@


 THAT'S WHAT MAKES US A GREAT COUNTRY.
 THE LITTLE THINGS ARE SERIOUS AND THE BIG ONES ARE NOT.
           WILL ROGERS
 Job cpu time:  0 days  0 hours  0 minutes  3.1 seconds.
 File lengths (MBytes):  RWF=      5 Int=      0 D2E=      0 Chk=      1 Scr=      1
 Normal termination of Gaussian 09 at Thu Mar  4 15:55:39 2021.
