 Entering Gaussian System, Link 0=g09
 Input=m140.com
 Output=m140.log
 Initial command:
 /home/student/g09/l1.exe /home/student/singh/4/a/Gau-30836.inp -scrdir=/home/student/singh/4/a/
 Entering Link 1 = /home/student/g09/l1.exe PID=     30838.
  
 Copyright (c) 1988,1990,1992,1993,1995,1998,2003,2009,2011,
            Gaussian, Inc.  All Rights Reserved.
  
 This is part of the Gaussian(R) 09 program.  It is based on
 the Gaussian(R) 03 system (copyright 2003, Gaussian, Inc.),
 the Gaussian(R) 98 system (copyright 1998, Gaussian, Inc.),
 the Gaussian(R) 94 system (copyright 1995, Gaussian, Inc.),
 the Gaussian 92(TM) system (copyright 1992, Gaussian, Inc.),
 the Gaussian 90(TM) system (copyright 1990, Gaussian, Inc.),
 the Gaussian 88(TM) system (copyright 1988, Gaussian, Inc.),
 the Gaussian 86(TM) system (copyright 1986, Carnegie Mellon
 University), and the Gaussian 82(TM) system (copyright 1983,
 Carnegie Mellon University). Gaussian is a federally registered
 trademark of Gaussian, Inc.
  
 This software contains proprietary and confidential information,
 including trade secrets, belonging to Gaussian, Inc.
  
 This software is provided under written license and may be
 used, copied, transmitted, or stored only in accord with that
 written license.
  
 The following legend is applicable only to US Government
 contracts under FAR:
  
                    RESTRICTED RIGHTS LEGEND
  
 Use, reproduction and disclosure by the US Government is
 subject to restrictions as set forth in subparagraphs (a)
 and (c) of the Commercial Computer Software - Restricted
 Rights clause in FAR 52.227-19.
  
 Gaussian, Inc.
 340 Quinnipiac St., Bldg. 40, Wallingford CT 06492
  
  
 ---------------------------------------------------------------
 Warning -- This program may not be used in any manner that
 competes with the business of Gaussian, Inc. or will provide
 assistance to any competitor of Gaussian, Inc.  The licensee
 of this program is prohibited from giving any competitor of
 Gaussian, Inc. access to this program.  By using this program,
 the user acknowledges that Gaussian, Inc. is engaged in the
 business of creating and licensing software in the field of
 computational chemistry and represents and warrants to the
 licensee that it is not a competitor of Gaussian, Inc. and that
 it will not use this program in any manner prohibited above.
 ---------------------------------------------------------------
  

 Cite this work as:
 Gaussian 09, Revision C.01,
 M. J. Frisch, G. W. Trucks, H. B. Schlegel, G. E. Scuseria, 
 M. A. Robb, J. R. Cheeseman, G. Scalmani, V. Barone, B. Mennucci, 
 G. A. Petersson, H. Nakatsuji, M. Caricato, X. Li, H. P. Hratchian, 
 A. F. Izmaylov, J. Bloino, G. Zheng, J. L. Sonnenberg, M. Hada, 
 M. Ehara, K. Toyota, R. Fukuda, J. Hasegawa, M. Ishida, T. Nakajima, 
 Y. Honda, O. Kitao, H. Nakai, T. Vreven, J. A. Montgomery, Jr., 
 J. E. Peralta, F. Ogliaro, M. Bearpark, J. J. Heyd, E. Brothers, 
 K. N. Kudin, V. N. Staroverov, T. Keith, R. Kobayashi, J. Normand, 
 K. Raghavachari, A. Rendell, J. C. Burant, S. S. Iyengar, J. Tomasi, 
 M. Cossi, N. Rega, J. M. Millam, M. Klene, J. E. Knox, J. B. Cross, 
 V. Bakken, C. Adamo, J. Jaramillo, R. Gomperts, R. E. Stratmann, 
 O. Yazyev, A. J. Austin, R. Cammi, C. Pomelli, J. W. Ochterski, 
 R. L. Martin, K. Morokuma, V. G. Zakrzewski, G. A. Voth, 
 P. Salvador, J. J. Dannenberg, S. Dapprich, A. D. Daniels, 
 O. Farkas, J. B. Foresman, J. V. Ortiz, J. Cioslowski, 
 and D. J. Fox, Gaussian, Inc., Wallingford CT, 2010.
 
 ******************************************
 Gaussian 09:  EM64L-G09RevC.01 23-Sep-2011
                 4-Mar-2021 
 ******************************************
 --------------------------
 # mp2/6-31g** opt=z-matrix
 --------------------------
 1/10=7,18=40,38=1/1,3;
 2/12=2,17=6,18=5,29=3,40=1/2;
 3/5=1,6=6,7=101,11=9,16=1,25=1,30=1,71=1/1,2,3;
 4//1;
 5/5=2,38=5/2;
 8/6=4,10=2/1;
 9/15=2,16=-3/6;
 10/5=1/2;
 6/7=2,8=2,9=2,10=2/1;
 7/12=2,29=1/1,2,3,16;
 1/10=7,18=40/3(2);
 2/29=3/2;
 99//99;
 2/29=3/2;
 3/5=1,6=6,7=101,11=9,16=1,25=1,30=1,71=1/1,2,3;
 4/5=5,16=3/1;
 5/5=2,38=5/2;
 8/6=4,10=2/1;
 9/15=2,16=-3/6;
 10/5=1/2;
 7/12=2/1,2,3,16;
 1/18=40/3(-8);
 2/29=3/2;
 6/7=2,8=2,9=2,10=2/1;
 99//99;
 --
 si
 --
 Charge =  0 Multiplicity = 1
 Symbolic Z-Matrix:
 xx
 n                    1    nxx2
 h                    2    hn3      1    hnxx3
 h                    2    hn4      1    hnxx4    3    dih4     0
 h                    2    hn5      1    hnxx5    4    dih5     0
       Variables:
  nxx2                  0.9604                   
  hn3                   1.008                    
  hn4                   1.008                    
  dih4                120.                       
  hn5                   1.008                    
  dih5                120.                       
       Constants:
  hnxx3               140.                       
  hnxx4               140.                       
  hnxx5               140.                       
 

 GradGradGradGradGradGradGradGradGradGradGradGradGradGradGradGradGradGrad
 Berny optimization.
 Initialization pass.
                       ----------------------------
                       !    Initial Parameters    !
                       ! (Angstroms and Degrees)  !
 ----------------------                            ----------------------
 !      Name          Value   Derivative information (Atomic Units)     !
 ------------------------------------------------------------------------
 !      nxx2         0.9604   estimate D2E/DX2                          !
 !       hn3         1.008    estimate D2E/DX2                          !
 !       hn4         1.008    estimate D2E/DX2                          !
 !      dih4       120.0      estimate D2E/DX2                          !
 !       hn5         1.008    estimate D2E/DX2                          !
 !      dih5       120.0      estimate D2E/DX2                          !
 !      hnxx3      140.0      Frozen                                    !
 !      hnxx4      140.0      Frozen                                    !
 !      hnxx5      140.0      Frozen                                    !
 ------------------------------------------------------------------------
 Trust Radius=3.00D-01 FncErr=1.00D-07 GrdErr=1.00D-07
 Number of steps in this run=     20 maximum allowed number of steps=    100.
 GradGradGradGradGradGradGradGradGradGradGradGradGradGradGradGradGradGrad

 ---------------------------------------------------------------------------------------------------
                            Z-MATRIX (ANGSTROMS AND DEGREES)
   CD    Cent   Atom    N1       Length/X        N2       Alpha/Y        N3        Beta/Z          J
 ---------------------------------------------------------------------------------------------------
      1         X 
      2      1  N        1   0.960400(     1)
      3      2  H        2   1.008000(     2)      1  140.000(     5)
      4      3  H        2   1.008000(     3)      1  140.000(     6)      3  120.000(     8)      0
      5      4  H        2   1.008000(     4)      1  140.000(     7)      4  120.000(     9)      0
 ---------------------------------------------------------------------------------------------------
                         Z-Matrix orientation:                         
 ---------------------------------------------------------------------
 Center     Atomic      Atomic             Coordinates (Angstroms)
 Number     Number       Type             X           Y           Z
 ---------------------------------------------------------------------
      1         -1           0        0.000000    0.000000    0.000000
      2          7           0        0.000000    0.000000    0.960400
      3          1           0        0.647930    0.000000    1.732573
      4          1           0       -0.323965    0.561124    1.732573
      5          1           0       -0.323965   -0.561124    1.732573
 ---------------------------------------------------------------------
                    Distance matrix (angstroms):
                    1          2          3          4          5
     1  X    0.000000
     2  N    0.960400   0.000000
     3  H    1.849763   1.008000   0.000000
     4  H    1.849763   1.008000   1.122248   0.000000
     5  H    1.849763   1.008000   1.122248   1.122248   0.000000
 Stoichiometry    H3N
 Framework group  C3V[C3(N),3SGV(H)]
 Deg. of freedom     2
 Full point group                 C3V     NOp   6
 Largest Abelian subgroup         CS      NOp   2
 Largest concise Abelian subgroup CS      NOp   2
                         Standard orientation:                         
 ---------------------------------------------------------------------
 Center     Atomic      Atomic             Coordinates (Angstroms)
 Number     Number       Type             X           Y           Z
 ---------------------------------------------------------------------
      1          7           0        0.000000    0.000000    0.231652
      2          1           0        0.000000    0.647930   -0.540521
      3          1           0        0.561124   -0.323965   -0.540521
      4          1           0       -0.561124   -0.323965   -0.540521
 ---------------------------------------------------------------------
 Rotational constants (GHZ):    398.1573529    238.6931170    238.6931170
 Standard basis: 6-31G(d,p) (6D, 7F)
 There are    20 symmetry adapted basis functions of A'  symmetry.
 There are    10 symmetry adapted basis functions of A"  symmetry.
 Integral buffers will be    131072 words long.
 Raffenetti 1 integral format.
 Two-electron integral symmetry is turned on.
    30 basis functions,    49 primitive gaussians,    30 cartesian basis functions
     5 alpha electrons        5 beta electrons
       nuclear repulsion energy        12.4391254259 Hartrees.
 NAtoms=    4 NActive=    4 NUniq=    2 SFac= 4.00D+00 NAtFMM=   60 NAOKFM=F Big=F
 One-electron integrals computed using PRISM.
 NBasis=    30 RedAO= T  NBF=    20    10
 NBsUse=    30 1.00D-06 NBFU=    20    10
 Harris functional with IExCor=  205 diagonalized for initial guess.
 ExpMin= 1.61D-01 ExpMax= 4.17D+03 ExpMxC= 6.27D+02 IAcc=1 IRadAn=         1 AccDes= 0.00D+00
 HarFok:  IExCor=  205 AccDes= 0.00D+00 IRadAn=         1 IDoV= 1
 ScaDFX=  1.000000  1.000000  1.000000  1.000000
 FoFCou: FMM=F IPFlag=           0 FMFlag=      100000 FMFlg1=           0
         NFxFlg=           0 DoJE=T BraDBF=F KetDBF=T FulRan=T
         Omega=  0.000000  0.000000  1.000000  0.000000  0.000000 ICntrl=     500 IOpCl=  0
         NMat0=    1 NMatS0=    1 NMatT0=    0 NMatD0=    1 NMtDS0=    0 NMtDT0=    0
         I1Cent=           4 NGrid=           0.
 Petite list used in FoFCou.
 Initial guess orbital symmetries:
       Occupied  (A1) (A1) (E) (E) (A1)
       Virtual   (A1) (E) (E) (E) (E) (A1) (E) (E) (A1) (A1) (E)
                 (E) (A1) (E) (E) (E) (E) (A1) (A2) (A1) (E) (E)
                 (E) (E) (A1)
 The electronic state of the initial guess is 1-A1.
 Requested convergence on RMS density matrix=1.00D-08 within 128 cycles.
 Requested convergence on MAX density matrix=1.00D-06.
 Requested convergence on             energy=1.00D-06.
 No special actions if energy rises.
 Keep R1 ints in memory in canonical form, NReq=949711.
 SCF Done:  E(RHF) =  -56.0814104073     A.U. after   10 cycles
             Convg  =    0.1449D-08             -V/T =  1.9965
 ExpMin= 1.61D-01 ExpMax= 4.17D+03 ExpMxC= 6.27D+02 IAcc=3 IRadAn=         5 AccDes= 0.00D+00
 HarFok:  IExCor=  205 AccDes= 0.00D+00 IRadAn=         5 IDoV=-2
 ScaDFX=  1.000000  1.000000  1.000000  1.000000
 Range of M.O.s used for correlation:     2    30
 NBasis=    30 NAE=     5 NBE=     5 NFC=     1 NFV=     0
 NROrb=     29 NOA=     4 NOB=     4 NVA=    25 NVB=    25
 Fully direct method using O(ONN) memory.
 JobTyp=1 Pass  1:  I=   2 to   5 NPSUse=  1 ParTrn=F ParDer=F DoDerP=T.
 Spin components of T(2) and E(2):
     alpha-alpha T2 =       0.7337998719D-02 E2=     -0.2389523131D-01
     alpha-beta  T2 =       0.4659583378D-01 E2=     -0.1549258341D+00
     beta-beta   T2 =       0.7337998719D-02 E2=     -0.2389523131D-01
 ANorm=    0.1030180485D+01
 E2 =    -0.2027162967D+00 EUMP2 =    -0.56284126703973D+02
          IDoAtm=1111
          Differentiating once with respect to electric field.
                with respect to dipole field.
          Differentiating once with respect to nuclear coordinates.
          Keep R1 ints in memory in canonical form, NReq=928986.
          There are     1 degrees of freedom in the 1st order CPHF.  IDoFFX=0.
 LinEq1:  Iter=  0 NonCon=     1 RMS=6.08D-03 Max=3.72D-02
 AX will form     1 AO Fock derivatives at one time.
 LinEq1:  Iter=  1 NonCon=     1 RMS=1.10D-03 Max=6.56D-03
 LinEq1:  Iter=  2 NonCon=     1 RMS=4.89D-04 Max=2.91D-03
 LinEq1:  Iter=  3 NonCon=     1 RMS=1.00D-04 Max=4.21D-04
 LinEq1:  Iter=  4 NonCon=     1 RMS=1.91D-05 Max=1.18D-04
 LinEq1:  Iter=  5 NonCon=     1 RMS=1.79D-06 Max=1.01D-05
 LinEq1:  Iter=  6 NonCon=     1 RMS=8.67D-08 Max=4.32D-07
 LinEq1:  Iter=  7 NonCon=     1 RMS=8.87D-09 Max=5.00D-08
 LinEq1:  Iter=  8 NonCon=     1 RMS=5.69D-10 Max=2.36D-09
 LinEq1:  Iter=  9 NonCon=     0 RMS=3.36D-11 Max=1.57D-10
 Linear equations converged to 1.000D-10 1.000D-09 after     9 iterations.
 End of Minotr Frequency-dependent properties file   721 does not exist.
 End of Minotr Frequency-dependent properties file   722 does not exist.

 **********************************************************************

            Population analysis using the SCF density.

 **********************************************************************

 Orbital symmetries:
       Occupied  (A1) (A1) (E) (E) (A1)
       Virtual   (A1) (E) (E) (E) (E) (A1) (A1) (E) (E) (A1) (E)
                 (E) (A1) (E) (E) (E) (E) (A2) (A1) (E) (E) (A1)
                 (E) (E) (A1)
 The electronic state is 1-A1.
 Alpha  occ. eigenvalues --  -15.56925  -1.24854  -0.55311  -0.55311  -0.54608
 Alpha virt. eigenvalues --    0.18546   0.30827   0.30827   0.85201   0.85201
 Alpha virt. eigenvalues --    0.92087   1.12480   1.14310   1.14310   1.25284
 Alpha virt. eigenvalues --    1.65197   1.65197   2.15726   2.39621   2.39621
 Alpha virt. eigenvalues --    2.68146   2.68146   2.96615   3.01914   3.36774
 Alpha virt. eigenvalues --    3.36774   3.44573   3.84718   3.84718   4.06807
          Condensed to atoms (all electrons):
              1          2          3          4
     1  N    6.720158   0.288786   0.288786   0.288786
     2  H    0.288786   0.648926  -0.066609  -0.066609
     3  H    0.288786  -0.066609   0.648926  -0.066609
     4  H    0.288786  -0.066609  -0.066609   0.648926
 Mulliken atomic charges:
              1
     1  N   -0.586516
     2  H    0.195505
     3  H    0.195505
     4  H    0.195505
 Sum of Mulliken atomic charges =   0.00000
 Mulliken charges with hydrogens summed into heavy atoms:
              1
     1  N    0.000000
 Sum of Mulliken charges with hydrogens summed into heavy atoms =   0.00000
 Electronic spatial extent (au):  <R**2>=             25.8595
 Charge=              0.0000 electrons
 Dipole moment (field-independent basis, Debye):
    X=              0.0000    Y=              0.0000    Z=             -2.8662  Tot=              2.8662
 Quadrupole moment (field-independent basis, Debye-Ang):
   XX=             -7.8038   YY=             -7.8038   ZZ=             -7.1108
   XY=              0.0000   XZ=              0.0000   YZ=              0.0000
 Traceless Quadrupole moment (field-independent basis, Debye-Ang):
   XX=             -0.2310   YY=             -0.2310   ZZ=              0.4619
   XY=              0.0000   XZ=              0.0000   YZ=              0.0000
 Octapole moment (field-independent basis, Debye-Ang**2):
  XXX=              0.0000  YYY=              0.0324  ZZZ=             -2.8083  XYY=              0.0000
  XXY=             -0.0324  XXZ=             -0.8833  XZZ=              0.0000  YZZ=              0.0000
  YYZ=             -0.8833  XYZ=              0.0000
 Hexadecapole moment (field-independent basis, Debye-Ang**3):
 XXXX=             -9.9460 YYYY=             -9.9460 ZZZZ=            -11.5671 XXXY=              0.0000
 XXXZ=              0.0000 YYYX=              0.0000 YYYZ=             -0.1402 ZZZX=              0.0000
 ZZZY=              0.0000 XXYY=             -3.3153 XXZZ=             -3.3937 YYZZ=             -3.3937
 XXYZ=              0.1402 YYXZ=              0.0000 ZZXY=              0.0000
 N-N= 1.243912542590D+01 E-N=-1.563770898735D+02  KE= 5.627617364625D+01
 Symmetry A'   KE= 5.356455604929D+01
 Symmetry A"   KE= 2.711617596964D+00
 Calling FoFJK, ICntrl=      2127 FMM=F ISym2X=1 I1Cent= 0 IOpClX= 0 NMat=1 NMatS=1 NMatT=0.
 ***** Axes restored to original set *****
 -------------------------------------------------------------------
 Center     Atomic                   Forces (Hartrees/Bohr)
 Number     Number              X              Y              Z
 -------------------------------------------------------------------
      1        7           0.000000000    0.000000000    0.040324039
      2        1           0.108366788    0.000000000   -0.013441346
      3        1          -0.054183394    0.093848391   -0.013441346
      4        1          -0.054183394   -0.093848391   -0.013441346
 -------------------------------------------------------------------
 Cartesian Forces:  Max     0.108366788 RMS     0.055825711
 -----------------------------------------------------------------------------------------------
                       Internal Coordinate Forces (Hartree/Bohr or radian)
  Cent   Atom   N1       Length/X         N2         Alpha/Y        N3         Beta/Z          J
 -----------------------------------------------------------------------------------------------
         X 
      1  N        1   0.000000(     1)
      2  H        2   0.059360(     2)      1  -0.174586(     5)
      3  H        2   0.059360(     3)      1  -0.174586(     6)      3   0.000000(     8)     0
      4  H        2   0.059360(     4)      1  -0.174586(     7)      4   0.000000(     9)     0
 -----------------------------------------------------------------------------------------------
 Internal  Forces:  Max     0.174586007 RMS     0.106464239

 GradGradGradGradGradGradGradGradGradGradGradGradGradGradGradGradGradGrad
 Berny optimization.
 Search for a local minimum.
 Step number   1 out of a maximum of   20
 All quantities printed in internal units (Hartrees-Bohrs-Radians)
 Second derivative matrix not updated -- first step.
 The second derivative matrix:
                         nxx2       hn3       hn4      dih4       hn5
           nxx2         0.00000
           hn3          0.00000   0.46309
           hn4          0.00000   0.00000   0.46309
           dih4         0.00000   0.00000   0.00000   0.04790
           hn5          0.00000   0.00000   0.00000   0.00000   0.46309
           dih5         0.00000   0.00000   0.00000   0.02395   0.00000
           hnxx3        0.00000   0.00000   0.00000   0.00000   0.00000
           hnxx4        0.00000   0.00000   0.00000  -0.04943   0.00000
           hnxx5        0.00000   0.00000   0.00000   0.04943   0.00000
                         dih5      hnxx3     hnxx4     hnxx5
           dih5         0.04790
           hnxx3        0.04943   0.20457
           hnxx4       -0.04943   0.10253   0.20457
           hnxx5        0.00000   0.10253   0.10253   0.20457
 ITU=  0
     Eigenvalues ---    0.00000   0.02395   0.07184   0.46309   0.46309
     Eigenvalues ---    0.463091000.000001000.000001000.00000
 RFO step:  Lambda=-2.18005526D-02 EMin= 5.06105574D-16
 Linear search not attempted -- first point.
 Variable       Old X    -DE/DX   Delta X   Delta X   Delta X     New X
                                 (Linear)    (Quad)   (Total)
   nxx2       1.81489   0.00000   0.00000   0.00000   0.00000   1.81489
   hn3        1.90484   0.05936   0.00000   0.12242   0.12242   2.02726
   hn4        1.90484   0.05936   0.00000   0.12242   0.12242   2.02726
   dih4       2.09440   0.00000   0.00000   0.00000   0.00000   2.09440
   hn5        1.90484   0.05936   0.00000   0.12242   0.12242   2.02726
   dih5       2.09440   0.00000   0.00000   0.00000   0.00000   2.09440
  hnxx3       2.44346  -0.17459   0.00000   0.00000   0.00000   2.44346
  hnxx4       2.44346  -0.17459   0.00000   0.00000   0.00000   2.44346
  hnxx5       2.44346  -0.17459   0.00000   0.00000   0.00000   2.44346
         Item               Value     Threshold  Converged?
 Maximum Force            0.059360     0.000450     NO 
 RMS     Force            0.041974     0.000300     NO 
 Maximum Displacement     0.122420     0.001800     NO 
 RMS     Displacement     0.070679     0.001200     NO 
 Predicted change in Energy=-1.139035D-02
 GradGradGradGradGradGradGradGradGradGradGradGradGradGradGradGradGradGrad

 ---------------------------------------------------------------------------------------------------
                            Z-MATRIX (ANGSTROMS AND DEGREES)
   CD    Cent   Atom    N1       Length/X        N2       Alpha/Y        N3        Beta/Z          J
 ---------------------------------------------------------------------------------------------------
      1         X 
      2      1  N        1   0.960400(     1)
      3      2  H        2   1.072782(     2)      1  140.000(     5)
      4      3  H        2   1.072782(     3)      1  140.000(     6)      3  120.000(     8)      0
      5      4  H        2   1.072782(     4)      1  140.000(     7)      4  120.000(     9)      0
 ---------------------------------------------------------------------------------------------------
                         Z-Matrix orientation:                         
 ---------------------------------------------------------------------
 Center     Atomic      Atomic             Coordinates (Angstroms)
 Number     Number       Type             X           Y           Z
 ---------------------------------------------------------------------
      1         -1           0        0.000000    0.000000    0.000000
      2          7           0        0.000000    0.000000    0.960400
      3          1           0        0.689571    0.000000    1.782198
      4          1           0       -0.344785    0.597186    1.782198
      5          1           0       -0.344785   -0.597186    1.782198
 ---------------------------------------------------------------------
                    Distance matrix (angstroms):
                    1          2          3          4          5
     1  X    0.000000
     2  N    0.960400   0.000000
     3  H    1.910952   1.072782   0.000000
     4  H    1.910952   1.072782   1.194372   0.000000
     5  H    1.910952   1.072782   1.194372   1.194372   0.000000
 Stoichiometry    H3N
 Framework group  C3V[C3(N),3SGV(H)]
 Deg. of freedom     2
 Full point group                 C3V     NOp   6
 Largest Abelian subgroup         CS      NOp   2
 Largest concise Abelian subgroup CS      NOp   2
                         Standard orientation:                         
 ---------------------------------------------------------------------
 Center     Atomic      Atomic             Coordinates (Angstroms)
 Number     Number       Type             X           Y           Z
 ---------------------------------------------------------------------
      1          7           0        0.000000    0.000000    0.246540
      2          1           0        0.000000    0.689571   -0.575259
      3          1           0        0.597186   -0.344785   -0.575259
      4          1           0       -0.597186   -0.344785   -0.575259
 ---------------------------------------------------------------------
 Rotational constants (GHZ):    351.5224813    210.7357710    210.7357710
 Standard basis: 6-31G(d,p) (6D, 7F)
 There are    20 symmetry adapted basis functions of A'  symmetry.
 There are    10 symmetry adapted basis functions of A"  symmetry.
 Integral buffers will be    131072 words long.
 Raffenetti 1 integral format.
 Two-electron integral symmetry is turned on.
    30 basis functions,    49 primitive gaussians,    30 cartesian basis functions
     5 alpha electrons        5 beta electrons
       nuclear repulsion energy        11.6879684134 Hartrees.
 NAtoms=    4 NActive=    4 NUniq=    2 SFac= 4.00D+00 NAtFMM=   60 NAOKFM=F Big=F
 One-electron integrals computed using PRISM.
 NBasis=    30 RedAO= T  NBF=    20    10
 NBsUse=    30 1.00D-06 NBFU=    20    10
 Initial guess read from the read-write file.
 B after Tr=     0.000000    0.000000    0.000000
         Rot=    1.000000    0.000000    0.000000    0.000000 Ang=   0.00 deg.
 Initial guess orbital symmetries:
       Occupied  (A1) (A1) (E) (E) (A1)
       Virtual   (A1) (E) (E) (E) (E) (A1) (A1) (E) (E) (A1) (E)
                 (E) (A1) (E) (E) (E) (E) (A2) (A1) (E) (E) (A1)
                 (E) (E) (A1)
 Harris functional with IExCor=  205 diagonalized for initial guess.
 ExpMin= 1.61D-01 ExpMax= 4.17D+03 ExpMxC= 6.27D+02 IAcc=1 IRadAn=         1 AccDes= 0.00D+00
 HarFok:  IExCor=  205 AccDes= 0.00D+00 IRadAn=         1 IDoV= 1
 ScaDFX=  1.000000  1.000000  1.000000  1.000000
 FoFCou: FMM=F IPFlag=           0 FMFlag=      100000 FMFlg1=           0
         NFxFlg=           0 DoJE=T BraDBF=F KetDBF=T FulRan=T
         Omega=  0.000000  0.000000  1.000000  0.000000  0.000000 ICntrl=     500 IOpCl=  0
         NMat0=    1 NMatS0=    1 NMatT0=    0 NMatD0=    1 NMtDS0=    0 NMtDT0=    0
         I1Cent=           4 NGrid=           0.
 Petite list used in FoFCou.
 Requested convergence on RMS density matrix=1.00D-08 within 128 cycles.
 Requested convergence on MAX density matrix=1.00D-06.
 Requested convergence on             energy=1.00D-06.
 No special actions if energy rises.
 Keep R1 ints in memory in canonical form, NReq=949711.
 SCF Done:  E(RHF) =  -56.0876943538     A.U. after    9 cycles
             Convg  =    0.2235D-08             -V/T =  2.0020
 ExpMin= 1.61D-01 ExpMax= 4.17D+03 ExpMxC= 6.27D+02 IAcc=3 IRadAn=         5 AccDes= 0.00D+00
 HarFok:  IExCor=  205 AccDes= 0.00D+00 IRadAn=         5 IDoV=-2
 ScaDFX=  1.000000  1.000000  1.000000  1.000000
 Range of M.O.s used for correlation:     2    30
 NBasis=    30 NAE=     5 NBE=     5 NFC=     1 NFV=     0
 NROrb=     29 NOA=     4 NOB=     4 NVA=    25 NVB=    25
 Fully direct method using O(ONN) memory.
 JobTyp=1 Pass  1:  I=   2 to   5 NPSUse=  1 ParTrn=F ParDer=F DoDerP=T.
 Spin components of T(2) and E(2):
     alpha-alpha T2 =       0.7933723564D-02 E2=     -0.2434009500D-01
     alpha-beta  T2 =       0.5124737299D-01 E2=     -0.1591397329D+00
     beta-beta   T2 =       0.7933723564D-02 E2=     -0.2434009500D-01
 ANorm=    0.1033012498D+01
 E2 =    -0.2078199229D+00 EUMP2 =    -0.56295514276763D+02
          IDoAtm=1111
          Differentiating once with respect to electric field.
                with respect to dipole field.
          Differentiating once with respect to nuclear coordinates.
          Keep R1 ints in memory in canonical form, NReq=928986.
          There are     1 degrees of freedom in the 1st order CPHF.  IDoFFX=0.
 LinEq1:  Iter=  0 NonCon=     1 RMS=7.09D-03 Max=4.06D-02
 AX will form     1 AO Fock derivatives at one time.
 LinEq1:  Iter=  1 NonCon=     1 RMS=1.40D-03 Max=8.28D-03
 LinEq1:  Iter=  2 NonCon=     1 RMS=6.24D-04 Max=3.61D-03
 LinEq1:  Iter=  3 NonCon=     1 RMS=1.38D-04 Max=6.44D-04
 LinEq1:  Iter=  4 NonCon=     1 RMS=2.81D-05 Max=1.84D-04
 LinEq1:  Iter=  5 NonCon=     1 RMS=2.53D-06 Max=1.30D-05
 LinEq1:  Iter=  6 NonCon=     1 RMS=1.16D-07 Max=5.25D-07
 LinEq1:  Iter=  7 NonCon=     1 RMS=1.15D-08 Max=7.06D-08
 LinEq1:  Iter=  8 NonCon=     1 RMS=7.76D-10 Max=2.74D-09
 LinEq1:  Iter=  9 NonCon=     0 RMS=4.06D-11 Max=1.81D-10
 Linear equations converged to 1.000D-10 1.000D-09 after     9 iterations.
 End of Minotr Frequency-dependent properties file   721 does not exist.
 End of Minotr Frequency-dependent properties file   722 does not exist.
 Calling FoFJK, ICntrl=      2127 FMM=F ISym2X=1 I1Cent= 0 IOpClX= 0 NMat=1 NMatS=1 NMatT=0.
 ***** Axes restored to original set *****
 -------------------------------------------------------------------
 Center     Atomic                   Forces (Hartrees/Bohr)
 Number     Number              X              Y              Z
 -------------------------------------------------------------------
      1        7           0.000000000    0.000000000    0.128320512
      2        1           0.060481439    0.000000000   -0.042773504
      3        1          -0.030240719    0.052378462   -0.042773504
      4        1          -0.030240719   -0.052378462   -0.042773504
 -------------------------------------------------------------------
 Cartesian Forces:  Max     0.128320512 RMS     0.052383907
 -----------------------------------------------------------------------------------------------
                       Internal Coordinate Forces (Hartree/Bohr or radian)
  Cent   Atom   N1       Length/X         N2         Alpha/Y        N3         Beta/Z          J
 -----------------------------------------------------------------------------------------------
         X 
      1  N        1   0.000000(     1)
      2  H        2   0.006110(     2)      1  -0.149664(     5)
      3  H        2   0.006110(     3)      1  -0.149664(     6)      3   0.000000(     8)     0
      4  H        2   0.006110(     4)      1  -0.149664(     7)      4   0.000000(     9)     0
 -----------------------------------------------------------------------------------------------
 Internal  Forces:  Max     0.149664251 RMS     0.086480680

 GradGradGradGradGradGradGradGradGradGradGradGradGradGradGradGradGradGrad
 Berny optimization.
 Search for a local minimum.
 Step number   2 out of a maximum of   20
 All quantities printed in internal units (Hartrees-Bohrs-Radians)
 Update second derivatives using D2CorN and points    1    2
 DE= -1.14D-02 DEPred=-1.14D-02 R= 1.00D+00
 SS=  1.41D+00  RLast= 2.12D-01 DXNew= 5.0454D-01 6.3611D-01
 Trust test= 1.00D+00 RLast= 2.12D-01 DXMaxT set to 5.05D-01
 The second derivative matrix:
                         nxx2       hn3       hn4      dih4       hn5
           nxx2         0.00000
           hn3          0.00000   0.45372
           hn4          0.00000  -0.00937   0.45372
           dih4         0.00000   0.00000   0.00000   0.04790
           hn5          0.00000  -0.00937  -0.00937   0.00000   0.45372
           dih5         0.00000   0.00000   0.00000   0.02395   0.00000
           hnxx3        0.00000  -0.03393  -0.03393   0.00000  -0.03393
           hnxx4        0.00000  -0.03393  -0.03393  -0.04943  -0.03393
           hnxx5        0.00000  -0.03393  -0.03393   0.04943  -0.03393
                         dih5      hnxx3     hnxx4     hnxx5
           dih5         0.04790
           hnxx3        0.04943   0.20457
           hnxx4       -0.04943   0.10253   0.20457
           hnxx5        0.00000   0.10253   0.10253   0.20457
 ITU=  1  0
     Eigenvalues ---    0.00000   0.02395   0.07184   0.43498   0.46309
     Eigenvalues ---    0.463091000.000001000.000001000.00000
 RFO step:  Lambda=-3.96949037D-08 EMin= 3.19026489D-16
 Quartic linear search produced a step of  0.14595.
 Variable       Old X    -DE/DX   Delta X   Delta X   Delta X     New X
                                 (Linear)    (Quad)   (Total)
   nxx2       1.81489   0.00000   0.00000   0.00000   0.00000   1.81489
   hn3        2.02726   0.00611   0.01787   0.00000   0.01787   2.04513
   hn4        2.02726   0.00611   0.01787   0.00000   0.01787   2.04513
   dih4       2.09440   0.00000   0.00000   0.00000   0.00000   2.09440
   hn5        2.02726   0.00611   0.01787   0.00000   0.01787   2.04513
   dih5       2.09440   0.00000   0.00000   0.00000   0.00000   2.09440
  hnxx3       2.44346  -0.14966   0.00000   0.00000   0.00000   2.44346
  hnxx4       2.44346  -0.14966   0.00000   0.00000   0.00000   2.44346
  hnxx5       2.44346  -0.14966   0.00000   0.00000   0.00000   2.44346
         Item               Value     Threshold  Converged?
 Maximum Force            0.006110     0.000450     NO 
 RMS     Force            0.004321     0.000300     NO 
 Maximum Displacement     0.017867     0.001800     NO 
 RMS     Displacement     0.010315     0.001200     NO 
 Predicted change in Energy=-1.192327D-04
 GradGradGradGradGradGradGradGradGradGradGradGradGradGradGradGradGradGrad

 ---------------------------------------------------------------------------------------------------
                            Z-MATRIX (ANGSTROMS AND DEGREES)
   CD    Cent   Atom    N1       Length/X        N2       Alpha/Y        N3        Beta/Z          J
 ---------------------------------------------------------------------------------------------------
      1         X 
      2      1  N        1   0.960401(     1)
      3      2  H        2   1.082236(     2)      1  140.000(     5)
      4      3  H        2   1.082236(     3)      1  140.000(     6)      3  120.000(     8)      0
      5      4  H        2   1.082236(     4)      1  140.000(     7)      4  120.000(     9)      0
 ---------------------------------------------------------------------------------------------------
                         Z-Matrix orientation:                         
 ---------------------------------------------------------------------
 Center     Atomic      Atomic             Coordinates (Angstroms)
 Number     Number       Type             X           Y           Z
 ---------------------------------------------------------------------
      1         -1           0        0.000000    0.000000    0.000000
      2          7           0        0.000000    0.000000    0.960401
      3          1           0        0.695648    0.000000    1.789442
      4          1           0       -0.347824    0.602449    1.789442
      5          1           0       -0.347824   -0.602449    1.789442
 ---------------------------------------------------------------------
                    Distance matrix (angstroms):
                    1          2          3          4          5
     1  X    0.000000
     2  N    0.960401   0.000000
     3  H    1.919903   1.082236   0.000000
     4  H    1.919903   1.082236   1.204898   0.000000
     5  H    1.919903   1.082236   1.204898   1.204898   0.000000
 Stoichiometry    H3N
 Framework group  C3V[C3(N),3SGV(H)]
 Deg. of freedom     2
 Full point group                 C3V     NOp   6
 Largest Abelian subgroup         CS      NOp   2
 Largest concise Abelian subgroup CS      NOp   2
                         Standard orientation:                         
 ---------------------------------------------------------------------
 Center     Atomic      Atomic             Coordinates (Angstroms)
 Number     Number       Type             X           Y           Z
 ---------------------------------------------------------------------
      1          7           0        0.000000    0.000000    0.248712
      2          1           0        0.000000    0.695648   -0.580329
      3          1           0        0.602449   -0.347824   -0.580329
      4          1           0       -0.602449   -0.347824   -0.580329
 ---------------------------------------------------------------------
 Rotational constants (GHZ):    345.4072956    207.0697512    207.0697512
 Standard basis: 6-31G(d,p) (6D, 7F)
 There are    20 symmetry adapted basis functions of A'  symmetry.
 There are    10 symmetry adapted basis functions of A"  symmetry.
 Integral buffers will be    131072 words long.
 Raffenetti 1 integral format.
 Two-electron integral symmetry is turned on.
    30 basis functions,    49 primitive gaussians,    30 cartesian basis functions
     5 alpha electrons        5 beta electrons
       nuclear repulsion energy        11.5858587618 Hartrees.
 NAtoms=    4 NActive=    4 NUniq=    2 SFac= 4.00D+00 NAtFMM=   60 NAOKFM=F Big=F
 One-electron integrals computed using PRISM.
 NBasis=    30 RedAO= T  NBF=    20    10
 NBsUse=    30 1.00D-06 NBFU=    20    10
 Initial guess read from the read-write file.
 B after Tr=     0.000000    0.000000    0.000000
         Rot=    1.000000    0.000000    0.000000    0.000000 Ang=   0.00 deg.
 Initial guess orbital symmetries:
       Occupied  (A1) (A1) (A1) (E) (E)
       Virtual   (A1) (E) (E) (E) (E) (A1) (A1) (E) (E) (A1) (E)
                 (E) (A1) (E) (E) (E) (E) (A2) (A1) (E) (E) (A1)
                 (E) (E) (A1)
 Requested convergence on RMS density matrix=1.00D-08 within 128 cycles.
 Requested convergence on MAX density matrix=1.00D-06.
 Requested convergence on             energy=1.00D-06.
 No special actions if energy rises.
 Keep R1 ints in memory in canonical form, NReq=949711.
 SCF Done:  E(RHF) =  -56.0870830700     A.U. after    8 cycles
             Convg  =    0.6875D-08             -V/T =  2.0027
 ExpMin= 1.61D-01 ExpMax= 4.17D+03 ExpMxC= 6.27D+02 IAcc=3 IRadAn=         5 AccDes= 0.00D+00
 HarFok:  IExCor=  205 AccDes= 0.00D+00 IRadAn=         5 IDoV=-2
 ScaDFX=  1.000000  1.000000  1.000000  1.000000
 Range of M.O.s used for correlation:     2    30
 NBasis=    30 NAE=     5 NBE=     5 NFC=     1 NFV=     0
 NROrb=     29 NOA=     4 NOB=     4 NVA=    25 NVB=    25
 Fully direct method using O(ONN) memory.
 JobTyp=1 Pass  1:  I=   2 to   5 NPSUse=  1 ParTrn=F ParDer=F DoDerP=T.
 Spin components of T(2) and E(2):
     alpha-alpha T2 =       0.8025832055D-02 E2=     -0.2440755687D-01
     alpha-beta  T2 =       0.5197584084D-01 E2=     -0.1597767498D+00
     beta-beta   T2 =       0.8025832055D-02 E2=     -0.2440755687D-01
 ANorm=    0.1033454162D+01
 E2 =    -0.2085918635D+00 EUMP2 =    -0.56295674933534D+02
          IDoAtm=1111
          Differentiating once with respect to electric field.
                with respect to dipole field.
          Differentiating once with respect to nuclear coordinates.
          Keep R1 ints in memory in canonical form, NReq=928986.
          There are     1 degrees of freedom in the 1st order CPHF.  IDoFFX=0.
 LinEq1:  Iter=  0 NonCon=     1 RMS=7.24D-03 Max=4.09D-02
 AX will form     1 AO Fock derivatives at one time.
 LinEq1:  Iter=  1 NonCon=     1 RMS=1.45D-03 Max=8.51D-03
 LinEq1:  Iter=  2 NonCon=     1 RMS=6.42D-04 Max=3.68D-03
 LinEq1:  Iter=  3 NonCon=     1 RMS=1.44D-04 Max=6.74D-04
 LinEq1:  Iter=  4 NonCon=     1 RMS=2.96D-05 Max=1.95D-04
 LinEq1:  Iter=  5 NonCon=     1 RMS=2.66D-06 Max=1.37D-05
 LinEq1:  Iter=  6 NonCon=     1 RMS=1.22D-07 Max=5.32D-07
 LinEq1:  Iter=  7 NonCon=     1 RMS=1.20D-08 Max=7.40D-08
 LinEq1:  Iter=  8 NonCon=     1 RMS=8.14D-10 Max=2.79D-09
 LinEq1:  Iter=  9 NonCon=     0 RMS=4.19D-11 Max=1.84D-10
 Linear equations converged to 1.000D-10 1.000D-09 after     9 iterations.
 End of Minotr Frequency-dependent properties file   721 does not exist.
 End of Minotr Frequency-dependent properties file   722 does not exist.
 Calling FoFJK, ICntrl=      2127 FMM=F ISym2X=1 I1Cent= 0 IOpClX= 0 NMat=1 NMatS=1 NMatT=0.
 ***** Axes restored to original set *****
 -------------------------------------------------------------------
 Center     Atomic                   Forces (Hartrees/Bohr)
 Number     Number              X              Y              Z
 -------------------------------------------------------------------
      1        7           0.000000000    0.000000000    0.138034471
      2        1           0.054747059    0.000000000   -0.046011490
      3        1          -0.027373529    0.047412343   -0.046011490
      4        1          -0.027373529   -0.047412343   -0.046011490
 -------------------------------------------------------------------
 Cartesian Forces:  Max     0.138034471 RMS     0.053538466
 -----------------------------------------------------------------------------------------------
                       Internal Coordinate Forces (Hartree/Bohr or radian)
  Cent   Atom   N1       Length/X         N2         Alpha/Y        N3         Beta/Z          J
 -----------------------------------------------------------------------------------------------
         X 
      1  N        1   0.000000(     1)
      2  H        2  -0.000056(     2)      1  -0.146256(     5)
      3  H        2  -0.000056(     3)      1  -0.146256(     6)      3   0.000000(     8)     0
      4  H        2  -0.000056(     4)      1  -0.146256(     7)      4   0.000000(     9)     0
 -----------------------------------------------------------------------------------------------
 Internal  Forces:  Max     0.146256065 RMS     0.084440985

 GradGradGradGradGradGradGradGradGradGradGradGradGradGradGradGradGradGrad
 Berny optimization.
 Search for a local minimum.
 Step number   3 out of a maximum of   20
 All quantities printed in internal units (Hartrees-Bohrs-Radians)
 Update second derivatives using D2CorN and points    2    3
 DE= -1.61D-04 DEPred=-1.19D-04 R= 1.35D+00
 SS=  1.41D+00  RLast= 3.09D-02 DXNew= 8.4853D-01 9.2839D-02
 Trust test= 1.35D+00 RLast= 3.09D-02 DXMaxT set to 5.05D-01
 The second derivative matrix:
                         nxx2       hn3       hn4      dih4       hn5
           nxx2         0.00000
           hn3          0.00000   0.42377
           hn4          0.00000  -0.03932   0.42377
           dih4         0.00000   0.00000   0.00000   0.04790
           hn5          0.00000  -0.03932  -0.03932   0.00000   0.42377
           dih5         0.00000   0.00000   0.00000   0.02395   0.00000
           hnxx3        0.00000  -0.04876  -0.04876   0.00000  -0.04876
           hnxx4        0.00000  -0.04876  -0.04876  -0.04943  -0.04876
           hnxx5        0.00000  -0.04876  -0.04876   0.04943  -0.04876
                         dih5      hnxx3     hnxx4     hnxx5
           dih5         0.04790
           hnxx3        0.04943   0.20457
           hnxx4       -0.04943   0.10253   0.20457
           hnxx5        0.00000   0.10253   0.10253   0.20457
 ITU=  1  1  0
     Eigenvalues ---    0.00000   0.02395   0.07184   0.34513   0.46309
     Eigenvalues ---    0.463091000.000001000.000001000.00000
 RFO step:  Lambda=-5.96733720D-09 EMin=-6.87272461D-12
 Quartic linear search produced a step of -0.00937.
 Variable       Old X    -DE/DX   Delta X   Delta X   Delta X     New X
                                 (Linear)    (Quad)   (Total)
   nxx2       1.81489   0.00000   0.00000  -0.01645  -0.01645   1.79844
   hn3        2.04513  -0.00006  -0.00017   0.00000  -0.00017   2.04496
   hn4        2.04513  -0.00006  -0.00017   0.00000  -0.00017   2.04496
   dih4       2.09440   0.00000   0.00000   0.00000   0.00000   2.09440
   hn5        2.04513  -0.00006  -0.00017   0.00000  -0.00017   2.04496
   dih5       2.09440   0.00000   0.00000   0.00000   0.00000   2.09440
  hnxx3       2.44346  -0.14626   0.00000   0.00000   0.00000   2.44346
  hnxx4       2.44346  -0.14626   0.00000   0.00000   0.00000   2.44346
  hnxx5       2.44346  -0.14626   0.00000   0.00000   0.00000   2.44346
         Item               Value     Threshold  Converged?
 Maximum Force            0.000056     0.000450     YES
 RMS     Force            0.000040     0.000300     YES
 Maximum Displacement     0.016452     0.001800     NO 
 RMS     Displacement     0.005485     0.001200     NO 
 Predicted change in Energy=-1.368121D-08
 GradGradGradGradGradGradGradGradGradGradGradGradGradGradGradGradGradGrad

 ---------------------------------------------------------------------------------------------------
                            Z-MATRIX (ANGSTROMS AND DEGREES)
   CD    Cent   Atom    N1       Length/X        N2       Alpha/Y        N3        Beta/Z          J
 ---------------------------------------------------------------------------------------------------
      1         X 
      2      1  N        1   0.951695(     1)
      3      2  H        2   1.082148(     2)      1  140.000(     5)
      4      3  H        2   1.082148(     3)      1  140.000(     6)      3  120.000(     8)      0
      5      4  H        2   1.082148(     4)      1  140.000(     7)      4  120.000(     9)      0
 ---------------------------------------------------------------------------------------------------
                         Z-Matrix orientation:                         
 ---------------------------------------------------------------------
 Center     Atomic      Atomic             Coordinates (Angstroms)
 Number     Number       Type             X           Y           Z
 ---------------------------------------------------------------------
      1         -1           0        0.000000    0.000000    0.000000
      2          7           0        0.000000    0.000000    0.951695
      3          1           0        0.695591    0.000000    1.780668
      4          1           0       -0.347796    0.602400    1.780668
      5          1           0       -0.347796   -0.602400    1.780668
 ---------------------------------------------------------------------
                    Distance matrix (angstroms):
                    1          2          3          4          5
     1  X    0.000000
     2  N    0.951695   0.000000
     3  H    1.911708   1.082148   0.000000
     4  H    1.911708   1.082148   1.204799   0.000000
     5  H    1.911708   1.082148   1.204799   1.204799   0.000000
 Stoichiometry    H3N
 Framework group  C3V[C3(N),3SGV(H)]
 Deg. of freedom     2
 Full point group                 C3V     NOp   6
 Largest Abelian subgroup         CS      NOp   2
 Largest concise Abelian subgroup CS      NOp   2
                         Standard orientation:                         
 ---------------------------------------------------------------------
 Center     Atomic      Atomic             Coordinates (Angstroms)
 Number     Number       Type             X           Y           Z
 ---------------------------------------------------------------------
      1          7           0        0.000000    0.000000    0.248692
      2          1           0        0.000000    0.695591   -0.580281
      3          1           0        0.602400   -0.347796   -0.580281
      4          1           0       -0.602400   -0.347796   -0.580281
 ---------------------------------------------------------------------
 Rotational constants (GHZ):    345.4638547    207.1036581    207.1036581
 Standard basis: 6-31G(d,p) (6D, 7F)
 There are    20 symmetry adapted basis functions of A'  symmetry.
 There are    10 symmetry adapted basis functions of A"  symmetry.
 Integral buffers will be    131072 words long.
 Raffenetti 1 integral format.
 Two-electron integral symmetry is turned on.
    30 basis functions,    49 primitive gaussians,    30 cartesian basis functions
     5 alpha electrons        5 beta electrons
       nuclear repulsion energy        11.5868072927 Hartrees.
 NAtoms=    4 NActive=    4 NUniq=    2 SFac= 4.00D+00 NAtFMM=   60 NAOKFM=F Big=F
 One-electron integrals computed using PRISM.
 NBasis=    30 RedAO= T  NBF=    20    10
 NBsUse=    30 1.00D-06 NBFU=    20    10
 Initial guess read from the read-write file.
 B after Tr=     0.000000    0.000000    0.000000
         Rot=    1.000000    0.000000    0.000000    0.000000 Ang=   0.00 deg.
 Initial guess orbital symmetries:
       Occupied  (A1) (A1) (A1) (E) (E)
       Virtual   (A1) (E) (E) (E) (E) (A1) (A1) (E) (E) (A1) (E)
                 (E) (A1) (E) (E) (E) (E) (A2) (A1) (E) (E) (A1)
                 (E) (E) (A1)
 Requested convergence on RMS density matrix=1.00D-08 within 128 cycles.
 Requested convergence on MAX density matrix=1.00D-06.
 Requested convergence on             energy=1.00D-06.
 No special actions if energy rises.
 Keep R1 ints in memory in canonical form, NReq=949711.
 SCF Done:  E(RHF) =  -56.0870903527     A.U. after    7 cycles
             Convg  =    0.4342D-09             -V/T =  2.0027
 ExpMin= 1.61D-01 ExpMax= 4.17D+03 ExpMxC= 6.27D+02 IAcc=3 IRadAn=         5 AccDes= 0.00D+00
 HarFok:  IExCor=  205 AccDes= 0.00D+00 IRadAn=         5 IDoV=-2
 ScaDFX=  1.000000  1.000000  1.000000  1.000000
 Range of M.O.s used for correlation:     2    30
 NBasis=    30 NAE=     5 NBE=     5 NFC=     1 NFV=     0
 NROrb=     29 NOA=     4 NOB=     4 NVA=    25 NVB=    25
 Fully direct method using O(ONN) memory.
 JobTyp=1 Pass  1:  I=   2 to   5 NPSUse=  1 ParTrn=F ParDer=F DoDerP=T.
 Spin components of T(2) and E(2):
     alpha-alpha T2 =       0.8024962465D-02 E2=     -0.2440692140D-01
     alpha-beta  T2 =       0.5196895308D-01 E2=     -0.1597707517D+00
     beta-beta   T2 =       0.8024962465D-02 E2=     -0.2440692140D-01
 ANorm=    0.1033449988D+01
 E2 =    -0.2085845945D+00 EUMP2 =    -0.56295674947154D+02
          IDoAtm=1111
          Differentiating once with respect to electric field.
                with respect to dipole field.
          Differentiating once with respect to nuclear coordinates.
          Keep R1 ints in memory in canonical form, NReq=928986.
          There are     1 degrees of freedom in the 1st order CPHF.  IDoFFX=0.
 LinEq1:  Iter=  0 NonCon=     1 RMS=7.24D-03 Max=4.09D-02
 AX will form     1 AO Fock derivatives at one time.
 LinEq1:  Iter=  1 NonCon=     1 RMS=1.45D-03 Max=8.50D-03
 LinEq1:  Iter=  2 NonCon=     1 RMS=6.42D-04 Max=3.68D-03
 LinEq1:  Iter=  3 NonCon=     1 RMS=1.44D-04 Max=6.74D-04
 LinEq1:  Iter=  4 NonCon=     1 RMS=2.96D-05 Max=1.94D-04
 LinEq1:  Iter=  5 NonCon=     1 RMS=2.66D-06 Max=1.36D-05
 LinEq1:  Iter=  6 NonCon=     1 RMS=1.22D-07 Max=5.32D-07
 LinEq1:  Iter=  7 NonCon=     1 RMS=1.20D-08 Max=7.39D-08
 LinEq1:  Iter=  8 NonCon=     1 RMS=8.13D-10 Max=2.79D-09
 LinEq1:  Iter=  9 NonCon=     0 RMS=4.19D-11 Max=1.84D-10
 Linear equations converged to 1.000D-10 1.000D-09 after     9 iterations.
 End of Minotr Frequency-dependent properties file   721 does not exist.
 End of Minotr Frequency-dependent properties file   722 does not exist.
 Calling FoFJK, ICntrl=      2127 FMM=F ISym2X=1 I1Cent= 0 IOpClX= 0 NMat=1 NMatS=1 NMatT=0.
 ***** Axes restored to original set *****
 -------------------------------------------------------------------
 Center     Atomic                   Forces (Hartrees/Bohr)
 Number     Number              X              Y              Z
 -------------------------------------------------------------------
      1        7           0.000000000    0.000000000    0.137946617
      2        1           0.054799489    0.000000000   -0.045982206
      3        1          -0.027399745    0.047457750   -0.045982206
      4        1          -0.027399745   -0.047457750   -0.045982206
 -------------------------------------------------------------------
 Cartesian Forces:  Max     0.137946617 RMS     0.053526715
 -----------------------------------------------------------------------------------------------
                       Internal Coordinate Forces (Hartree/Bohr or radian)
  Cent   Atom   N1       Length/X         N2         Alpha/Y        N3         Beta/Z          J
 -----------------------------------------------------------------------------------------------
         X 
      1  N        1   0.000000(     1)
      2  H        2   0.000000(     2)      1  -0.146288(     5)
      3  H        2   0.000000(     3)      1  -0.146288(     6)      3   0.000000(     8)     0
      4  H        2   0.000000(     4)      1  -0.146288(     7)      4   0.000000(     9)     0
 -----------------------------------------------------------------------------------------------
 Internal  Forces:  Max     0.146287732 RMS     0.084459262

 GradGradGradGradGradGradGradGradGradGradGradGradGradGradGradGradGradGrad
 Berny optimization.
 Search for a local minimum.
 Step number   4 out of a maximum of   20
 All quantities printed in internal units (Hartrees-Bohrs-Radians)
 Update second derivatives using D2CorN and points    1    2    3    4
 DE= -1.36D-08 DEPred=-1.37D-08 R= 9.96D-01
 Trust test= 9.96D-01 RLast= 1.65D-02 DXMaxT set to 5.05D-01
 The second derivative matrix:
                         nxx2       hn3       hn4      dih4       hn5
           nxx2        -0.00026
           hn3          0.00418   0.42916
           hn4          0.00418  -0.03393   0.42916
           dih4         0.00000   0.00000   0.00000   0.04790
           hn5          0.00418  -0.03393  -0.03393   0.00000   0.42916
           dih5         0.00000   0.00000   0.00000   0.02395   0.00000
           hnxx3        0.00145  -0.06005  -0.06005   0.00000  -0.06005
           hnxx4        0.00145  -0.06005  -0.06005  -0.04943  -0.06005
           hnxx5        0.00145  -0.06005  -0.06005   0.04943  -0.06005
                         dih5      hnxx3     hnxx4     hnxx5
           dih5         0.04790
           hnxx3        0.04943   0.20457
           hnxx4       -0.04943   0.10253   0.20457
           hnxx5        0.00000   0.10253   0.10253   0.20457
 ITU=  0  1  1  0
     Eigenvalues ---   -0.00041   0.02395   0.07184   0.36145   0.46309
     Eigenvalues ---    0.463091000.000001000.000001000.00000
 RFO step:  Lambda=-4.08695451D-04 EMin=-4.08692471D-04
 Mixed    1 eigenvectors in step.  Raw Step.Grad=  8.35D-11.
 RFO eigenvector is Hessian eigenvector with negative curvature.
 Taking step of  6.00D-01 in eigenvector direction(s).  Step.Grad= -8.35D-11.
 Quartic linear search produced a step of -0.00039.
 Maximum step size (   0.505) exceeded in Quadratic search.
    -- Step size scaled by   0.841
 Variable       Old X    -DE/DX   Delta X   Delta X   Delta X     New X
                                 (Linear)    (Quad)   (Total)
   nxx2       1.79844   0.00000   0.00001   0.50444   0.50444   2.30289
   hn3        2.04496   0.00000   0.00000  -0.00583  -0.00583   2.03913
   hn4        2.04496   0.00000   0.00000  -0.00583  -0.00583   2.03913
   dih4       2.09440   0.00000   0.00000   0.00000   0.00000   2.09440
   hn5        2.04496   0.00000   0.00000  -0.00583  -0.00583   2.03913
   dih5       2.09440   0.00000   0.00000   0.00000   0.00000   2.09440
  hnxx3       2.44346  -0.14629   0.00000   0.00000   0.00000   2.44346
  hnxx4       2.44346  -0.14629   0.00000   0.00000   0.00000   2.44346
  hnxx5       2.44346  -0.14629   0.00000   0.00000   0.00000   2.44346
         Item               Value     Threshold  Converged?
 Maximum Force            0.000000     0.000450     YES
 RMS     Force            0.000000     0.000300     YES
 Maximum Displacement     0.504443     0.001800     NO 
 RMS     Displacement     0.168181     0.001200     NO 
 Predicted change in Energy=-5.201903D-05
 Optimization completed on the basis of negligible forces.
    -- Stationary point found.
                       ----------------------------
                       !   Optimized Parameters   !
                       ! (Angstroms and Degrees)  !
 ----------------------                            ----------------------
 !      Name          Value   Derivative information (Atomic Units)     !
 ------------------------------------------------------------------------
 !      nxx2         0.9517   -DE/DX =    0.0                           !
 !       hn3         1.0821   -DE/DX =    0.0                           !
 !       hn4         1.0821   -DE/DX =    0.0                           !
 !      dih4       120.0      -DE/DX =    0.0                           !
 !       hn5         1.0821   -DE/DX =    0.0                           !
 !      dih5       120.0      -DE/DX =    0.0                           !
 !      hnxx3      140.0      -DE/DX =   -0.1463                        !
 !      hnxx4      140.0      -DE/DX =   -0.1463                        !
 !      hnxx5      140.0      -DE/DX =   -0.1463                        !
 ------------------------------------------------------------------------
 GradGradGradGradGradGradGradGradGradGradGradGradGradGradGradGradGradGrad

 ---------------------------------------------------------------------------------------------------
                            Z-MATRIX (ANGSTROMS AND DEGREES)
   CD    Cent   Atom    N1       Length/X        N2       Alpha/Y        N3        Beta/Z          J
 ---------------------------------------------------------------------------------------------------
      1         X 
      2      1  N        1   0.951695(     1)
      3      2  H        2   1.082148(     2)      1  140.000(     5)
      4      3  H        2   1.082148(     3)      1  140.000(     6)      3  120.000(     8)      0
      5      4  H        2   1.082148(     4)      1  140.000(     7)      4  120.000(     9)      0
 ---------------------------------------------------------------------------------------------------
                         Z-Matrix orientation:                         
 ---------------------------------------------------------------------
 Center     Atomic      Atomic             Coordinates (Angstroms)
 Number     Number       Type             X           Y           Z
 ---------------------------------------------------------------------
      1         -1           0        0.000000    0.000000    0.000000
      2          7           0        0.000000    0.000000    0.951695
      3          1           0        0.695591    0.000000    1.780668
      4          1           0       -0.347796    0.602400    1.780668
      5          1           0       -0.347796   -0.602400    1.780668
 ---------------------------------------------------------------------
                    Distance matrix (angstroms):
                    1          2          3          4          5
     1  X    0.000000
     2  N    0.951695   0.000000
     3  H    1.911708   1.082148   0.000000
     4  H    1.911708   1.082148   1.204799   0.000000
     5  H    1.911708   1.082148   1.204799   1.204799   0.000000
 Stoichiometry    H3N
 Framework group  C3V[C3(N),3SGV(H)]
 Deg. of freedom     2
 Full point group                 C3V     NOp   6
 Largest Abelian subgroup         CS      NOp   2
 Largest concise Abelian subgroup CS      NOp   2
                         Standard orientation:                         
 ---------------------------------------------------------------------
 Center     Atomic      Atomic             Coordinates (Angstroms)
 Number     Number       Type             X           Y           Z
 ---------------------------------------------------------------------
      1          7           0        0.000000    0.000000    0.248692
      2          1           0        0.000000    0.695591   -0.580281
      3          1           0        0.602400   -0.347796   -0.580281
      4          1           0       -0.602400   -0.347796   -0.580281
 ---------------------------------------------------------------------
 Rotational constants (GHZ):    345.4638547    207.1036581    207.1036581

 **********************************************************************

            Population analysis using the SCF density.

 **********************************************************************

 Orbital symmetries:
       Occupied  (A1) (A1) (A1) (E) (E)
       Virtual   (A1) (E) (E) (E) (E) (A1) (A1) (E) (E) (A1) (E)
                 (E) (A1) (E) (E) (E) (E) (A2) (A1) (E) (E) (A1)
                 (E) (E) (A1)
 The electronic state is 1-A1.
 Alpha  occ. eigenvalues --  -15.59531  -1.19421  -0.54504  -0.53297  -0.53297
 Alpha virt. eigenvalues --    0.17703   0.28149   0.28149   0.86339   0.86339
 Alpha virt. eigenvalues --    0.92654   1.06474   1.10573   1.10573   1.25780
 Alpha virt. eigenvalues --    1.64496   1.64496   2.06571   2.27923   2.27923
 Alpha virt. eigenvalues --    2.61304   2.61304   2.84824   2.89462   3.23362
 Alpha virt. eigenvalues --    3.23362   3.31762   3.70177   3.70177   4.06572
          Condensed to atoms (all electrons):
              1          2          3          4
     1  N    6.767505   0.269681   0.269681   0.269681
     2  H    0.269681   0.654522  -0.058193  -0.058193
     3  H    0.269681  -0.058193   0.654522  -0.058193
     4  H    0.269681  -0.058193  -0.058193   0.654522
 Mulliken atomic charges:
              1
     1  N   -0.576548
     2  H    0.192183
     3  H    0.192183
     4  H    0.192183
 Sum of Mulliken atomic charges =   0.00000
 Mulliken charges with hydrogens summed into heavy atoms:
              1
     1  N    0.000000
 Sum of Mulliken charges with hydrogens summed into heavy atoms =   0.00000
 Electronic spatial extent (au):  <R**2>=             27.5774
 Charge=              0.0000 electrons
 Dipole moment (field-independent basis, Debye):
    X=              0.0000    Y=              0.0000    Z=             -2.8203  Tot=              2.8203
 Quadrupole moment (field-independent basis, Debye-Ang):
   XX=             -8.0094   YY=             -8.0094   ZZ=             -7.1702
   XY=              0.0000   XZ=              0.0000   YZ=              0.0000
 Traceless Quadrupole moment (field-independent basis, Debye-Ang):
   XX=             -0.2797   YY=             -0.2797   ZZ=              0.5594
   XY=              0.0000   XZ=              0.0000   YZ=              0.0000
 Octapole moment (field-independent basis, Debye-Ang**2):
  XXX=              0.0000  YYY=              0.0753  ZZZ=             -2.6272  XYY=              0.0000
  XXY=             -0.0753  XXZ=             -0.8728  XZZ=              0.0000  YZZ=              0.0000
  YYZ=             -0.8728  XYZ=              0.0000
 Hexadecapole moment (field-independent basis, Debye-Ang**3):
 XXXX=            -10.9470 YYYY=            -10.9470 ZZZZ=            -12.7349 XXXY=              0.0000
 XXXZ=              0.0000 YYYX=              0.0000 YYYZ=             -0.1905 ZZZX=              0.0000
 ZZZY=              0.0000 XXYY=             -3.6490 XXZZ=             -3.6997 YYZZ=             -3.6997
 XXYZ=              0.1905 YYXZ=              0.0000 ZZXY=              0.0000
 N-N= 1.158680729274D+01 E-N=-1.544840203504D+02  KE= 5.593722011490D+01
 Symmetry A'   KE= 5.333510877931D+01
 Symmetry A"   KE= 2.602111335593D+00
 1\1\GINC-NISER-THINKCENTRE-M93P\POpt\RMP2-FC\6-31G(d,p)\H3N1\STUDENT\0
 4-Mar-2021\1\\# mp2/6-31g** opt=z-matrix\\si\\0,1\X\N,1,nxx2\H,2,hn3,1
 ,hnxx3\H,2,hn4,1,hnxx4,3,dih4,0\H,2,hn5,1,hnxx5,4,dih5,0\\nxx2=0.95169
 469\hn3=1.08214784\hn4=1.08214784\dih4=120.\hn5=1.08214784\dih5=120.\h
 nxx3=140.\hnxx4=140.\hnxx5=140.\\Version=EM64L-G09RevC.01\State=1-A1\H
 F=-56.0870904\MP2=-56.2956749\RMSD=4.342e-10\RMSF=5.353e-02\Dipole=0.,
 0.,0.9961679\PG=C03V [C3(N1),3SGV(H1)]\\@


 ALL OUR THINKING ABOUT NATURE MUST NECESSARILY MOVE IN CIRCLES OR SPIRALS;
 FOR WE CAN ONLY UNDERSTAND NATURE IF WE THINK ABOUT HER, AND WE CAN ONLY
 THINK BECAUSE OUR BRAIN IS BUILT IN ACCORDANCE WITH NATURE'S LAWS.

                                             -- TIMOTHY FERRIS, "GALAXIES"
 Job cpu time:  0 days  0 hours  0 minutes  3.9 seconds.
 File lengths (MBytes):  RWF=      5 Int=      0 D2E=      0 Chk=      1 Scr=      1
 Normal termination of Gaussian 09 at Thu Mar  4 15:55:52 2021.
