 Entering Gaussian System, Link 0=g09
 Input=m9.com
 Output=m9.log
 Initial command:
 /home/student/g09/l1.exe /home/student/singh/4/a/Gau-30470.inp -scrdir=/home/student/singh/4/a/
 Entering Link 1 = /home/student/g09/l1.exe PID=     30472.
  
 Copyright (c) 1988,1990,1992,1993,1995,1998,2003,2009,2011,
            Gaussian, Inc.  All Rights Reserved.
  
 This is part of the Gaussian(R) 09 program.  It is based on
 the Gaussian(R) 03 system (copyright 2003, Gaussian, Inc.),
 the Gaussian(R) 98 system (copyright 1998, Gaussian, Inc.),
 the Gaussian(R) 94 system (copyright 1995, Gaussian, Inc.),
 the Gaussian 92(TM) system (copyright 1992, Gaussian, Inc.),
 the Gaussian 90(TM) system (copyright 1990, Gaussian, Inc.),
 the Gaussian 88(TM) system (copyright 1988, Gaussian, Inc.),
 the Gaussian 86(TM) system (copyright 1986, Carnegie Mellon
 University), and the Gaussian 82(TM) system (copyright 1983,
 Carnegie Mellon University). Gaussian is a federally registered
 trademark of Gaussian, Inc.
  
 This software contains proprietary and confidential information,
 including trade secrets, belonging to Gaussian, Inc.
  
 This software is provided under written license and may be
 used, copied, transmitted, or stored only in accord with that
 written license.
  
 The following legend is applicable only to US Government
 contracts under FAR:
  
                    RESTRICTED RIGHTS LEGEND
  
 Use, reproduction and disclosure by the US Government is
 subject to restrictions as set forth in subparagraphs (a)
 and (c) of the Commercial Computer Software - Restricted
 Rights clause in FAR 52.227-19.
  
 Gaussian, Inc.
 340 Quinnipiac St., Bldg. 40, Wallingford CT 06492
  
  
 ---------------------------------------------------------------
 Warning -- This program may not be used in any manner that
 competes with the business of Gaussian, Inc. or will provide
 assistance to any competitor of Gaussian, Inc.  The licensee
 of this program is prohibited from giving any competitor of
 Gaussian, Inc. access to this program.  By using this program,
 the user acknowledges that Gaussian, Inc. is engaged in the
 business of creating and licensing software in the field of
 computational chemistry and represents and warrants to the
 licensee that it is not a competitor of Gaussian, Inc. and that
 it will not use this program in any manner prohibited above.
 ---------------------------------------------------------------
  

 Cite this work as:
 Gaussian 09, Revision C.01,
 M. J. Frisch, G. W. Trucks, H. B. Schlegel, G. E. Scuseria, 
 M. A. Robb, J. R. Cheeseman, G. Scalmani, V. Barone, B. Mennucci, 
 G. A. Petersson, H. Nakatsuji, M. Caricato, X. Li, H. P. Hratchian, 
 A. F. Izmaylov, J. Bloino, G. Zheng, J. L. Sonnenberg, M. Hada, 
 M. Ehara, K. Toyota, R. Fukuda, J. Hasegawa, M. Ishida, T. Nakajima, 
 Y. Honda, O. Kitao, H. Nakai, T. Vreven, J. A. Montgomery, Jr., 
 J. E. Peralta, F. Ogliaro, M. Bearpark, J. J. Heyd, E. Brothers, 
 K. N. Kudin, V. N. Staroverov, T. Keith, R. Kobayashi, J. Normand, 
 K. Raghavachari, A. Rendell, J. C. Burant, S. S. Iyengar, J. Tomasi, 
 M. Cossi, N. Rega, J. M. Millam, M. Klene, J. E. Knox, J. B. Cross, 
 V. Bakken, C. Adamo, J. Jaramillo, R. Gomperts, R. E. Stratmann, 
 O. Yazyev, A. J. Austin, R. Cammi, C. Pomelli, J. W. Ochterski, 
 R. L. Martin, K. Morokuma, V. G. Zakrzewski, G. A. Voth, 
 P. Salvador, J. J. Dannenberg, S. Dapprich, A. D. Daniels, 
 O. Farkas, J. B. Foresman, J. V. Ortiz, J. Cioslowski, 
 and D. J. Fox, Gaussian, Inc., Wallingford CT, 2010.
 
 ******************************************
 Gaussian 09:  EM64L-G09RevC.01 23-Sep-2011
                 4-Mar-2021 
 ******************************************
 --------------------------
 # mp2/6-31g** opt=z-matrix
 --------------------------
 1/10=7,18=40,38=1/1,3;
 2/12=2,17=6,18=5,29=3,40=1/2;
 3/5=1,6=6,7=101,11=9,16=1,25=1,30=1,71=1/1,2,3;
 4//1;
 5/5=2,38=5/2;
 8/6=4,10=2/1;
 9/15=2,16=-3/6;
 10/5=1/2;
 6/7=2,8=2,9=2,10=2/1;
 7/12=2,29=1/1,2,3,16;
 1/10=7,18=40/3(2);
 2/29=3/2;
 99//99;
 2/29=3/2;
 3/5=1,6=6,7=101,11=9,16=1,25=1,30=1,71=1/1,2,3;
 4/5=5,16=3/1;
 5/5=2,38=5/2;
 8/6=4,10=2/1;
 9/15=2,16=-3/6;
 10/5=1/2;
 7/12=2/1,2,3,16;
 1/18=40/3(-8);
 2/29=3/2;
 6/7=2,8=2,9=2,10=2/1;
 99//99;
 --
 si
 --
 Charge =  0 Multiplicity = 1
 Symbolic Z-Matrix:
 xx
 n                    1    nxx2
 h                    2    hn3      1    hnxx3
 h                    2    hn4      1    hnxx4    3    dih4     0
 h                    2    hn5      1    hnxx5    4    dih5     0
       Variables:
  nxx2                  0.9604                   
  hn3                   1.008                    
  hn4                   1.008                    
  dih4                120.                       
  hn5                   1.008                    
  dih5                120.                       
       Constants:
  hnxx3                90.                       
  hnxx4                90.                       
  hnxx5                90.                       
 

 GradGradGradGradGradGradGradGradGradGradGradGradGradGradGradGradGradGrad
 Berny optimization.
 Initialization pass.
                       ----------------------------
                       !    Initial Parameters    !
                       ! (Angstroms and Degrees)  !
 ----------------------                            ----------------------
 !      Name          Value   Derivative information (Atomic Units)     !
 ------------------------------------------------------------------------
 !      nxx2         0.9604   estimate D2E/DX2                          !
 !       hn3         1.008    estimate D2E/DX2                          !
 !       hn4         1.008    estimate D2E/DX2                          !
 !      dih4       120.0      estimate D2E/DX2                          !
 !       hn5         1.008    estimate D2E/DX2                          !
 !      dih5       120.0      estimate D2E/DX2                          !
 !      hnxx3       90.0      Frozen                                    !
 !      hnxx4       90.0      Frozen                                    !
 !      hnxx5       90.0      Frozen                                    !
 ------------------------------------------------------------------------
 Trust Radius=3.00D-01 FncErr=1.00D-07 GrdErr=1.00D-07
 Number of steps in this run=     20 maximum allowed number of steps=    100.
 GradGradGradGradGradGradGradGradGradGradGradGradGradGradGradGradGradGrad

 ---------------------------------------------------------------------------------------------------
                            Z-MATRIX (ANGSTROMS AND DEGREES)
   CD    Cent   Atom    N1       Length/X        N2       Alpha/Y        N3        Beta/Z          J
 ---------------------------------------------------------------------------------------------------
      1         X 
      2      1  N        1   0.960400(     1)
      3      2  H        2   1.008000(     2)      1   90.000(     5)
      4      3  H        2   1.008000(     3)      1   90.000(     6)      3  120.000(     8)      0
      5      4  H        2   1.008000(     4)      1   90.000(     7)      4  120.000(     9)      0
 ---------------------------------------------------------------------------------------------------
                         Z-Matrix orientation:                         
 ---------------------------------------------------------------------
 Center     Atomic      Atomic             Coordinates (Angstroms)
 Number     Number       Type             X           Y           Z
 ---------------------------------------------------------------------
      1         -1           0        0.000000    0.000000    0.000000
      2          7           0        0.000000    0.000000    0.960400
      3          1           0        1.008000    0.000000    0.960400
      4          1           0       -0.504000    0.872954    0.960400
      5          1           0       -0.504000   -0.872954    0.960400
 ---------------------------------------------------------------------
                    Distance matrix (angstroms):
                    1          2          3          4          5
     1  X    0.000000
     2  N    0.960400   0.000000
     3  H    1.392276   1.008000   0.000000
     4  H    1.392276   1.008000   1.745907   0.000000
     5  H    1.392276   1.008000   1.745907   1.745907   0.000000
 Stoichiometry    H3N
 Framework group  D3H[O(N),3C2(H)]
 Deg. of freedom     1
 Full point group                 D3H     NOp  12
 Largest Abelian subgroup         C2V     NOp   4
 Largest concise Abelian subgroup C2      NOp   2
                         Standard orientation:                         
 ---------------------------------------------------------------------
 Center     Atomic      Atomic             Coordinates (Angstroms)
 Number     Number       Type             X           Y           Z
 ---------------------------------------------------------------------
      1          7           0        0.000000    0.000000    0.000000
      2          1           0        0.000000    1.008000    0.000000
      3          1           0        0.872954   -0.504000    0.000000
      4          1           0       -0.872954   -0.504000    0.000000
 ---------------------------------------------------------------------
 Rotational constants (GHZ):    329.0180542    329.0180542    164.5090271
 Standard basis: 6-31G(d,p) (6D, 7F)
 There are    15 symmetry adapted basis functions of A1  symmetry.
 There are     2 symmetry adapted basis functions of A2  symmetry.
 There are     8 symmetry adapted basis functions of B1  symmetry.
 There are     5 symmetry adapted basis functions of B2  symmetry.
 Integral buffers will be    131072 words long.
 Raffenetti 1 integral format.
 Two-electron integral symmetry is turned on.
    30 basis functions,    49 primitive gaussians,    30 cartesian basis functions
     5 alpha electrons        5 beta electrons
       nuclear repulsion energy        11.9338126904 Hartrees.
 NAtoms=    4 NActive=    4 NUniq=    2 SFac= 4.00D+00 NAtFMM=   60 NAOKFM=F Big=F
 One-electron integrals computed using PRISM.
 NBasis=    30 RedAO= T  NBF=    15     2     8     5
 NBsUse=    30 1.00D-06 NBFU=    15     2     8     5
 Harris functional with IExCor=  205 diagonalized for initial guess.
 ExpMin= 1.61D-01 ExpMax= 4.17D+03 ExpMxC= 6.27D+02 IAcc=1 IRadAn=         1 AccDes= 0.00D+00
 HarFok:  IExCor=  205 AccDes= 0.00D+00 IRadAn=         1 IDoV= 1
 ScaDFX=  1.000000  1.000000  1.000000  1.000000
 FoFCou: FMM=F IPFlag=           0 FMFlag=      100000 FMFlg1=           0
         NFxFlg=           0 DoJE=T BraDBF=F KetDBF=T FulRan=T
         Omega=  0.000000  0.000000  1.000000  0.000000  0.000000 ICntrl=     500 IOpCl=  0
         NMat0=    1 NMatS0=    1 NMatT0=    0 NMatD0=    1 NMtDS0=    0 NMtDT0=    0
         I1Cent=           4 NGrid=           0.
 Petite list used in FoFCou.
 Initial guess orbital symmetries:
       Occupied  (A1') (A1') (E') (E') (A2")
       Virtual   (A1') (E') (E') (A2") (E') (E') (A1') (E') (E')
                 (A1') (E") (E") (A2') (E') (E') (A1') (A2") (E")
                 (E") (E') (E') (A1') (E') (E') (A1')
 The electronic state of the initial guess is 1-A1'.
 Requested convergence on RMS density matrix=1.00D-08 within 128 cycles.
 Requested convergence on MAX density matrix=1.00D-06.
 Requested convergence on             energy=1.00D-06.
 No special actions if energy rises.
 Keep R1 ints in memory in canonical form, NReq=949789.
 SCF Done:  E(RHF) =  -56.1854354665     A.U. after    9 cycles
             Convg  =    0.1565D-08             -V/T =  2.0039
 ExpMin= 1.61D-01 ExpMax= 4.17D+03 ExpMxC= 6.27D+02 IAcc=3 IRadAn=         5 AccDes= 0.00D+00
 HarFok:  IExCor=  205 AccDes= 0.00D+00 IRadAn=         5 IDoV=-2
 ScaDFX=  1.000000  1.000000  1.000000  1.000000
 Range of M.O.s used for correlation:     2    30
 NBasis=    30 NAE=     5 NBE=     5 NFC=     1 NFV=     0
 NROrb=     29 NOA=     4 NOB=     4 NVA=    25 NVB=    25
 Fully direct method using O(ONN) memory.
 JobTyp=1 Pass  1:  I=   2 to   5 NPSUse=  1 ParTrn=F ParDer=F DoDerP=T.
 Spin components of T(2) and E(2):
     alpha-alpha T2 =       0.6142548685D-02 E2=     -0.2129185310D-01
     alpha-beta  T2 =       0.4073277003D-01 E2=     -0.1447103332D+00
     beta-beta   T2 =       0.6142548685D-02 E2=     -0.2129185310D-01
 ANorm=    0.1026166589D+01
 E2 =    -0.1872940394D+00 EUMP2 =    -0.56372729505830D+02
          IDoAtm=1111
          Differentiating once with respect to electric field.
                with respect to dipole field.
          Differentiating once with respect to nuclear coordinates.
          Keep R1 ints in memory in canonical form, NReq=929148.
          There are     1 degrees of freedom in the 1st order CPHF.  IDoFFX=0.
 LinEq1:  Iter=  0 NonCon=     1 RMS=3.66D-03 Max=1.77D-02
 AX will form     1 AO Fock derivatives at one time.
 LinEq1:  Iter=  1 NonCon=     1 RMS=1.04D-03 Max=7.89D-03
 LinEq1:  Iter=  2 NonCon=     1 RMS=1.95D-04 Max=1.09D-03
 LinEq1:  Iter=  3 NonCon=     1 RMS=2.31D-05 Max=1.10D-04
 LinEq1:  Iter=  4 NonCon=     1 RMS=1.17D-06 Max=6.65D-06
 LinEq1:  Iter=  5 NonCon=     1 RMS=9.66D-08 Max=6.97D-07
 LinEq1:  Iter=  6 NonCon=     1 RMS=5.03D-09 Max=2.48D-08
 LinEq1:  Iter=  7 NonCon=     1 RMS=3.92D-10 Max=2.38D-09
 LinEq1:  Iter=  8 NonCon=     0 RMS=2.63D-11 Max=1.36D-10
 Linear equations converged to 1.000D-10 1.000D-09 after     8 iterations.
 End of Minotr Frequency-dependent properties file   721 does not exist.
 End of Minotr Frequency-dependent properties file   722 does not exist.

 **********************************************************************

            Population analysis using the SCF density.

 **********************************************************************

 Orbital symmetries:
       Occupied  (A1') (A1') (E') (E') (A2")
       Virtual   (A1') (E') (E') (E') (E') (A2") (A1') (E') (E')
                 (A1') (E") (E") (A2') (E') (E') (A1') (A2") (E")
                 (E") (E') (E') (A1') (E') (E') (A1')
 The electronic state is 1-A1'.
 Alpha  occ. eigenvalues --  -15.52101  -1.10731  -0.63306  -0.63306  -0.37897
 Alpha virt. eigenvalues --    0.22696   0.32844   0.32844   0.93366   0.93366
 Alpha virt. eigenvalues --    0.97261   1.01757   1.17331   1.17331   1.30827
 Alpha virt. eigenvalues --    1.75853   1.75853   2.33146   2.38835   2.38835
 Alpha virt. eigenvalues --    2.45014   2.67486   3.01345   3.01345   3.19783
 Alpha virt. eigenvalues --    3.19783   3.68579   3.86837   3.86837   4.42461
          Condensed to atoms (all electrons):
              1          2          3          4
     1  N    6.754169   0.371010   0.371010   0.371010
     2  H    0.371010   0.389033  -0.024554  -0.024554
     3  H    0.371010  -0.024554   0.389033  -0.024554
     4  H    0.371010  -0.024554  -0.024554   0.389033
 Mulliken atomic charges:
              1
     1  N   -0.867198
     2  H    0.289066
     3  H    0.289066
     4  H    0.289066
 Sum of Mulliken atomic charges =   0.00000
 Mulliken charges with hydrogens summed into heavy atoms:
              1
     1  N    0.000000
 Sum of Mulliken charges with hydrogens summed into heavy atoms =   0.00000
 Electronic spatial extent (au):  <R**2>=             25.8687
 Charge=              0.0000 electrons
 Dipole moment (field-independent basis, Debye):
    X=              0.0000    Y=              0.0000    Z=              0.0000  Tot=              0.0000
 Quadrupole moment (field-independent basis, Debye-Ang):
   XX=             -5.4170   YY=             -5.4170   ZZ=             -9.3193
   XY=              0.0000   XZ=              0.0000   YZ=              0.0000
 Traceless Quadrupole moment (field-independent basis, Debye-Ang):
   XX=              1.3008   YY=              1.3008   ZZ=             -2.6016
   XY=              0.0000   XZ=              0.0000   YZ=              0.0000
 Octapole moment (field-independent basis, Debye-Ang**2):
  XXX=              0.0000  YYY=              1.3215  ZZZ=              0.0000  XYY=              0.0000
  XXY=             -1.3215  XXZ=              0.0000  XZZ=              0.0000  YZZ=              0.0000
  YYZ=              0.0000  XYZ=              0.0000
 Hexadecapole moment (field-independent basis, Debye-Ang**3):
 XXXX=             -8.5377 YYYY=             -8.5377 ZZZZ=             -8.7498 XXXY=              0.0000
 XXXZ=              0.0000 YYYX=              0.0000 YYYZ=              0.0000 ZZZX=              0.0000
 ZZZY=              0.0000 XXYY=             -2.8459 XXZZ=             -3.3222 YYZZ=             -3.3222
 XXYZ=              0.0000 YYXZ=              0.0000 ZZXY=              0.0000
 N-N= 1.193381269035D+01 E-N=-1.556599717296D+02  KE= 5.596829421056D+01
 Symmetry A1   KE= 5.031174473197D+01
 Symmetry A2   KE= 5.844011810552D-33
 Symmetry B1   KE= 2.560273978210D+00
 Symmetry B2   KE= 3.096275500383D+00
 Calling FoFJK, ICntrl=      2127 FMM=F ISym2X=1 I1Cent= 0 IOpClX= 0 NMat=1 NMatS=1 NMatT=0.
 ***** Axes restored to original set *****
 -------------------------------------------------------------------
 Center     Atomic                   Forces (Hartrees/Bohr)
 Number     Number              X              Y              Z
 -------------------------------------------------------------------
      1        7           0.000000000    0.000000000    0.000000000
      2        1          -0.013022006    0.000000000    0.000000000
      3        1           0.006511003   -0.011277388    0.000000000
      4        1           0.006511003    0.011277388    0.000000000
 -------------------------------------------------------------------
 Cartesian Forces:  Max     0.013022006 RMS     0.006511003
 -----------------------------------------------------------------------------------------------
                       Internal Coordinate Forces (Hartree/Bohr or radian)
  Cent   Atom   N1       Length/X         N2         Alpha/Y        N3         Beta/Z          J
 -----------------------------------------------------------------------------------------------
         X 
      1  N        1   0.000000(     1)
      2  H        2  -0.013022(     2)      1   0.000000(     5)
      3  H        2  -0.013022(     3)      1   0.000000(     6)      3   0.000000(     8)     0
      4  H        2  -0.013022(     4)      1   0.000000(     7)      4   0.000000(     9)     0
 -----------------------------------------------------------------------------------------------
 Internal  Forces:  Max     0.013022006 RMS     0.007518259

 GradGradGradGradGradGradGradGradGradGradGradGradGradGradGradGradGradGrad
 Berny optimization.
 Search for a local minimum.
 Step number   1 out of a maximum of   20
 All quantities printed in internal units (Hartrees-Bohrs-Radians)
 Second derivative matrix not updated -- first step.
 The second derivative matrix:
                         nxx2       hn3       hn4      dih4       hn5
           nxx2         0.00000
           hn3          0.00000   0.46309
           hn4          0.00000   0.00000   0.46309
           dih4         0.00000   0.00000   0.00000   0.32000
           hn5          0.00000   0.00000   0.00000   0.00000   0.46309
           dih5         0.00000   0.00000   0.00000   0.16000   0.00000
           hnxx3        0.00000   0.00000   0.00000   0.00000   0.00000
           hnxx4        0.00000   0.00000   0.00000   0.00000   0.00000
           hnxx5        0.00000   0.00000   0.00000   0.00000   0.00000
                         dih5      hnxx3     hnxx4     hnxx5
           dih5         0.32000
           hnxx3        0.00000   0.04500
           hnxx4        0.00000   0.04500   0.04500
           hnxx5        0.00000   0.04500   0.04500   0.04500
 ITU=  0
     Eigenvalues ---    0.00000   0.16000   0.46309   0.46309   0.46309
     Eigenvalues ---    0.480001000.000001000.000001000.00000
 RFO step:  Lambda=-1.09593868D-03 EMin=-8.67361738D-17
 Linear search not attempted -- first point.
 Variable       Old X    -DE/DX   Delta X   Delta X   Delta X     New X
                                 (Linear)    (Quad)   (Total)
   nxx2       1.81489   0.00000   0.00000   0.00000   0.00000   1.81489
   hn3        1.90484  -0.01302   0.00000  -0.02805  -0.02805   1.87679
   hn4        1.90484  -0.01302   0.00000  -0.02805  -0.02805   1.87679
   dih4       2.09440   0.00000   0.00000   0.00000   0.00000   2.09440
   hn5        1.90484  -0.01302   0.00000  -0.02805  -0.02805   1.87679
   dih5       2.09440   0.00000   0.00000   0.00000   0.00000   2.09440
  hnxx3       1.57080   0.00000   0.00000   0.00000   0.00000   1.57080
  hnxx4       1.57080   0.00000   0.00000   0.00000   0.00000   1.57080
  hnxx5       1.57080   0.00000   0.00000   0.00000   0.00000   1.57080
         Item               Value     Threshold  Converged?
 Maximum Force            0.013022     0.000450     NO 
 RMS     Force            0.009208     0.000300     NO 
 Maximum Displacement     0.028053     0.001800     NO 
 RMS     Displacement     0.016197     0.001200     NO 
 Predicted change in Energy=-5.492613D-04
 GradGradGradGradGradGradGradGradGradGradGradGradGradGradGradGradGradGrad

 ---------------------------------------------------------------------------------------------------
                            Z-MATRIX (ANGSTROMS AND DEGREES)
   CD    Cent   Atom    N1       Length/X        N2       Alpha/Y        N3        Beta/Z          J
 ---------------------------------------------------------------------------------------------------
      1         X 
      2      1  N        1   0.960400(     1)
      3      2  H        2   0.993155(     2)      1   90.000(     5)
      4      3  H        2   0.993155(     3)      1   90.000(     6)      3  120.000(     8)      0
      5      4  H        2   0.993155(     4)      1   90.000(     7)      4  120.000(     9)      0
 ---------------------------------------------------------------------------------------------------
                         Z-Matrix orientation:                         
 ---------------------------------------------------------------------
 Center     Atomic      Atomic             Coordinates (Angstroms)
 Number     Number       Type             X           Y           Z
 ---------------------------------------------------------------------
      1         -1           0        0.000000    0.000000    0.000000
      2          7           0        0.000000    0.000000    0.960400
      3          1           0        0.993155    0.000000    0.960400
      4          1           0       -0.496577    0.860097    0.960400
      5          1           0       -0.496577   -0.860097    0.960400
 ---------------------------------------------------------------------
                    Distance matrix (angstroms):
                    1          2          3          4          5
     1  X    0.000000
     2  N    0.960400   0.000000
     3  H    1.381566   0.993155   0.000000
     4  H    1.381566   0.993155   1.720195   0.000000
     5  H    1.381566   0.993155   1.720195   1.720195   0.000000
 Stoichiometry    H3N
 Framework group  D3H[O(N),3C2(H)]
 Deg. of freedom     1
 Full point group                 D3H     NOp  12
 Largest Abelian subgroup         C2V     NOp   4
 Largest concise Abelian subgroup C2      NOp   2
                         Standard orientation:                         
 ---------------------------------------------------------------------
 Center     Atomic      Atomic             Coordinates (Angstroms)
 Number     Number       Type             X           Y           Z
 ---------------------------------------------------------------------
      1          7           0        0.000000    0.000000    0.000000
      2          1           0        0.000000    0.993155    0.000000
      3          1           0        0.860097   -0.496577    0.000000
      4          1           0       -0.860097   -0.496577    0.000000
 ---------------------------------------------------------------------
 Rotational constants (GHZ):    338.9275906    338.9275906    169.4637953
 Standard basis: 6-31G(d,p) (6D, 7F)
 There are    15 symmetry adapted basis functions of A1  symmetry.
 There are     2 symmetry adapted basis functions of A2  symmetry.
 There are     8 symmetry adapted basis functions of B1  symmetry.
 There are     5 symmetry adapted basis functions of B2  symmetry.
 Integral buffers will be    131072 words long.
 Raffenetti 1 integral format.
 Two-electron integral symmetry is turned on.
    30 basis functions,    49 primitive gaussians,    30 cartesian basis functions
     5 alpha electrons        5 beta electrons
       nuclear repulsion energy        12.1121938903 Hartrees.
 NAtoms=    4 NActive=    4 NUniq=    2 SFac= 4.00D+00 NAtFMM=   60 NAOKFM=F Big=F
 One-electron integrals computed using PRISM.
 NBasis=    30 RedAO= T  NBF=    15     2     8     5
 NBsUse=    30 1.00D-06 NBFU=    15     2     8     5
 Initial guess read from the read-write file.
 B after Tr=     0.000000    0.000000    0.000000
         Rot=    1.000000    0.000000    0.000000    0.000000 Ang=   0.00 deg.
 Initial guess orbital symmetries:
       Occupied  (A1') (A1') (E') (E') (A2")
       Virtual   (A1') (E') (E') (E') (E') (A2") (A1') (E') (E')
                 (A1') (E") (E") (A2') (E') (E') (A1') (A2") (E")
                 (E") (E') (E') (A1') (E') (E') (A1')
 Harris functional with IExCor=  205 diagonalized for initial guess.
 ExpMin= 1.61D-01 ExpMax= 4.17D+03 ExpMxC= 6.27D+02 IAcc=1 IRadAn=         1 AccDes= 0.00D+00
 HarFok:  IExCor=  205 AccDes= 0.00D+00 IRadAn=         1 IDoV= 1
 ScaDFX=  1.000000  1.000000  1.000000  1.000000
 FoFCou: FMM=F IPFlag=           0 FMFlag=      100000 FMFlg1=           0
         NFxFlg=           0 DoJE=T BraDBF=F KetDBF=T FulRan=T
         Omega=  0.000000  0.000000  1.000000  0.000000  0.000000 ICntrl=     500 IOpCl=  0
         NMat0=    1 NMatS0=    1 NMatT0=    0 NMatD0=    1 NMtDS0=    0 NMtDT0=    0
         I1Cent=           4 NGrid=           0.
 Petite list used in FoFCou.
 Requested convergence on RMS density matrix=1.00D-08 within 128 cycles.
 Requested convergence on MAX density matrix=1.00D-06.
 Requested convergence on             energy=1.00D-06.
 No special actions if energy rises.
 Keep R1 ints in memory in canonical form, NReq=949789.
 SCF Done:  E(RHF) =  -56.1866323851     A.U. after    7 cycles
             Convg  =    0.7699D-08             -V/T =  2.0024
 ExpMin= 1.61D-01 ExpMax= 4.17D+03 ExpMxC= 6.27D+02 IAcc=3 IRadAn=         5 AccDes= 0.00D+00
 HarFok:  IExCor=  205 AccDes= 0.00D+00 IRadAn=         5 IDoV=-2
 ScaDFX=  1.000000  1.000000  1.000000  1.000000
 Range of M.O.s used for correlation:     2    30
 NBasis=    30 NAE=     5 NBE=     5 NFC=     1 NFV=     0
 NROrb=     29 NOA=     4 NOB=     4 NVA=    25 NVB=    25
 Fully direct method using O(ONN) memory.
 JobTyp=1 Pass  1:  I=   2 to   5 NPSUse=  1 ParTrn=F ParDer=F DoDerP=T.
 Spin components of T(2) and E(2):
     alpha-alpha T2 =       0.6069893799D-02 E2=     -0.2124971547D-01
     alpha-beta  T2 =       0.4005279300D-01 E2=     -0.1440942468D+00
     beta-beta   T2 =       0.6069893799D-02 E2=     -0.2124971547D-01
 ANorm=    0.1025764388D+01
 E2 =    -0.1865936777D+00 EUMP2 =    -0.56373226062781D+02
          IDoAtm=1111
          Differentiating once with respect to electric field.
                with respect to dipole field.
          Differentiating once with respect to nuclear coordinates.
          Keep R1 ints in memory in canonical form, NReq=929148.
          There are     1 degrees of freedom in the 1st order CPHF.  IDoFFX=0.
 LinEq1:  Iter=  0 NonCon=     1 RMS=3.54D-03 Max=1.70D-02
 AX will form     1 AO Fock derivatives at one time.
 LinEq1:  Iter=  1 NonCon=     1 RMS=9.74D-04 Max=7.27D-03
 LinEq1:  Iter=  2 NonCon=     1 RMS=1.75D-04 Max=9.25D-04
 LinEq1:  Iter=  3 NonCon=     1 RMS=2.15D-05 Max=1.03D-04
 LinEq1:  Iter=  4 NonCon=     1 RMS=1.12D-06 Max=6.38D-06
 LinEq1:  Iter=  5 NonCon=     1 RMS=9.43D-08 Max=6.68D-07
 LinEq1:  Iter=  6 NonCon=     1 RMS=4.87D-09 Max=2.34D-08
 LinEq1:  Iter=  7 NonCon=     1 RMS=3.61D-10 Max=2.13D-09
 LinEq1:  Iter=  8 NonCon=     0 RMS=2.45D-11 Max=1.25D-10
 Linear equations converged to 1.000D-10 1.000D-09 after     8 iterations.
 End of Minotr Frequency-dependent properties file   721 does not exist.
 End of Minotr Frequency-dependent properties file   722 does not exist.
 Calling FoFJK, ICntrl=      2127 FMM=F ISym2X=1 I1Cent= 0 IOpClX= 0 NMat=1 NMatS=1 NMatT=0.
 ***** Axes restored to original set *****
 -------------------------------------------------------------------
 Center     Atomic                   Forces (Hartrees/Bohr)
 Number     Number              X              Y              Z
 -------------------------------------------------------------------
      1        7           0.000000000    0.000000000    0.000000000
      2        1           0.001450432    0.000000000    0.000000000
      3        1          -0.000725216    0.001256111    0.000000000
      4        1          -0.000725216   -0.001256111    0.000000000
 -------------------------------------------------------------------
 Cartesian Forces:  Max     0.001450432 RMS     0.000725216
 -----------------------------------------------------------------------------------------------
                       Internal Coordinate Forces (Hartree/Bohr or radian)
  Cent   Atom   N1       Length/X         N2         Alpha/Y        N3         Beta/Z          J
 -----------------------------------------------------------------------------------------------
         X 
      1  N        1   0.000000(     1)
      2  H        2   0.001450(     2)      1   0.000000(     5)
      3  H        2   0.001450(     3)      1   0.000000(     6)      3   0.000000(     8)     0
      4  H        2   0.001450(     4)      1   0.000000(     7)      4   0.000000(     9)     0
 -----------------------------------------------------------------------------------------------
 Internal  Forces:  Max     0.001450432 RMS     0.000837407

 GradGradGradGradGradGradGradGradGradGradGradGradGradGradGradGradGradGrad
 Berny optimization.
 Search for a local minimum.
 Step number   2 out of a maximum of   20
 All quantities printed in internal units (Hartrees-Bohrs-Radians)
 Update second derivatives using D2CorN and points    1    2
 DE= -4.97D-04 DEPred=-5.49D-04 R= 9.04D-01
 SS=  1.41D+00  RLast= 4.86D-02 DXNew= 5.0454D-01 1.4577D-01
 Trust test= 9.04D-01 RLast= 4.86D-02 DXMaxT set to 3.00D-01
 The second derivative matrix:
                         nxx2       hn3       hn4      dih4       hn5
           nxx2         0.00000
           hn3          0.00000   0.48069
           hn4          0.00000   0.01760   0.48069
           dih4         0.00000   0.00000   0.00000   0.32000
           hn5          0.00000   0.01760   0.01760   0.00000   0.48069
           dih5         0.00000   0.00000   0.00000   0.16000   0.00000
           hnxx3        0.00000   0.00000   0.00000   0.00000   0.00000
           hnxx4        0.00000   0.00000   0.00000   0.00000   0.00000
           hnxx5        0.00000   0.00000   0.00000   0.00000   0.00000
                         dih5      hnxx3     hnxx4     hnxx5
           dih5         0.32000
           hnxx3        0.00000   0.04500
           hnxx4        0.00000   0.04500   0.04500
           hnxx5        0.00000   0.04500   0.04500   0.04500
 ITU=  1  0
     Eigenvalues ---    0.00000   0.16000   0.46309   0.46309   0.48000
     Eigenvalues ---    0.515891000.000001000.000001000.00000
 RFO step:  Lambda=-5.96046459D-09 EMin=-1.11022302D-16
 Quartic linear search produced a step of -0.09608.
 Variable       Old X    -DE/DX   Delta X   Delta X   Delta X     New X
                                 (Linear)    (Quad)   (Total)
   nxx2       1.81489   0.00000   0.00000   0.00000   0.00000   1.81489
   hn3        1.87679   0.00145   0.00270   0.00000   0.00270   1.87949
   hn4        1.87679   0.00145   0.00270   0.00000   0.00270   1.87949
   dih4       2.09440   0.00000   0.00000   0.00000   0.00000   2.09440
   hn5        1.87679   0.00145   0.00270   0.00000   0.00270   1.87949
   dih5       2.09440   0.00000   0.00000   0.00000   0.00000   2.09440
  hnxx3       1.57080   0.00000   0.00000   0.00000   0.00000   1.57080
  hnxx4       1.57080   0.00000   0.00000   0.00000   0.00000   1.57080
  hnxx5       1.57080   0.00000   0.00000   0.00000   0.00000   1.57080
         Item               Value     Threshold  Converged?
 Maximum Force            0.001450     0.000450     NO 
 RMS     Force            0.001026     0.000300     NO 
 Maximum Displacement     0.002695     0.001800     NO 
 RMS     Displacement     0.001556     0.001200     NO 
 Predicted change in Energy=-6.106425D-06
 GradGradGradGradGradGradGradGradGradGradGradGradGradGradGradGradGradGrad

 ---------------------------------------------------------------------------------------------------
                            Z-MATRIX (ANGSTROMS AND DEGREES)
   CD    Cent   Atom    N1       Length/X        N2       Alpha/Y        N3        Beta/Z          J
 ---------------------------------------------------------------------------------------------------
      1         X 
      2      1  N        1   0.960400(     1)
      3      2  H        2   0.994581(     2)      1   90.000(     5)
      4      3  H        2   0.994581(     3)      1   90.000(     6)      3  120.000(     8)      0
      5      4  H        2   0.994581(     4)      1   90.000(     7)      4  120.000(     9)      0
 ---------------------------------------------------------------------------------------------------
                         Z-Matrix orientation:                         
 ---------------------------------------------------------------------
 Center     Atomic      Atomic             Coordinates (Angstroms)
 Number     Number       Type             X           Y           Z
 ---------------------------------------------------------------------
      1         -1           0        0.000000    0.000000    0.000000
      2          7           0        0.000000    0.000000    0.960400
      3          1           0        0.994581    0.000000    0.960400
      4          1           0       -0.497291    0.861332    0.960400
      5          1           0       -0.497291   -0.861332    0.960400
 ---------------------------------------------------------------------
                    Distance matrix (angstroms):
                    1          2          3          4          5
     1  X    0.000000
     2  N    0.960400   0.000000
     3  H    1.382592   0.994581   0.000000
     4  H    1.382592   0.994581   1.722665   0.000000
     5  H    1.382592   0.994581   1.722665   1.722665   0.000000
 Stoichiometry    H3N
 Framework group  D3H[O(N),3C2(H)]
 Deg. of freedom     1
 Full point group                 D3H     NOp  12
 Largest Abelian subgroup         C2V     NOp   4
 Largest concise Abelian subgroup C2      NOp   2
                         Standard orientation:                         
 ---------------------------------------------------------------------
 Center     Atomic      Atomic             Coordinates (Angstroms)
 Number     Number       Type             X           Y           Z
 ---------------------------------------------------------------------
      1          7           0        0.000000    0.000000    0.000000
      2          1           0        0.000000    0.994581    0.000000
      3          1           0        0.861332   -0.497291    0.000000
      4          1           0       -0.861332   -0.497291    0.000000
 ---------------------------------------------------------------------
 Rotational constants (GHZ):    337.9562070    337.9562070    168.9781035
 Standard basis: 6-31G(d,p) (6D, 7F)
 There are    15 symmetry adapted basis functions of A1  symmetry.
 There are     2 symmetry adapted basis functions of A2  symmetry.
 There are     8 symmetry adapted basis functions of B1  symmetry.
 There are     5 symmetry adapted basis functions of B2  symmetry.
 Integral buffers will be    131072 words long.
 Raffenetti 1 integral format.
 Two-electron integral symmetry is turned on.
    30 basis functions,    49 primitive gaussians,    30 cartesian basis functions
     5 alpha electrons        5 beta electrons
       nuclear repulsion energy        12.0948243557 Hartrees.
 NAtoms=    4 NActive=    4 NUniq=    2 SFac= 4.00D+00 NAtFMM=   60 NAOKFM=F Big=F
 One-electron integrals computed using PRISM.
 NBasis=    30 RedAO= T  NBF=    15     2     8     5
 NBsUse=    30 1.00D-06 NBFU=    15     2     8     5
 Initial guess read from the read-write file.
 B after Tr=     0.000000    0.000000    0.000000
         Rot=    1.000000    0.000000    0.000000    0.000000 Ang=   0.00 deg.
 Initial guess orbital symmetries:
       Occupied  (A1') (A1') (E') (E') (A2")
       Virtual   (A1') (E') (E') (E') (E') (A2") (A1') (E') (E')
                 (A1') (E") (E") (A2') (E') (E') (A1') (A2") (E")
                 (E") (E') (E') (A1') (E') (E') (A1')
 Requested convergence on RMS density matrix=1.00D-08 within 128 cycles.
 Requested convergence on MAX density matrix=1.00D-06.
 Requested convergence on             energy=1.00D-06.
 No special actions if energy rises.
 Keep R1 ints in memory in canonical form, NReq=949789.
 SCF Done:  E(RHF) =  -56.1865708531     A.U. after    7 cycles
             Convg  =    0.7133D-09             -V/T =  2.0026
 ExpMin= 1.61D-01 ExpMax= 4.17D+03 ExpMxC= 6.27D+02 IAcc=3 IRadAn=         5 AccDes= 0.00D+00
 HarFok:  IExCor=  205 AccDes= 0.00D+00 IRadAn=         5 IDoV=-2
 ScaDFX=  1.000000  1.000000  1.000000  1.000000
 Range of M.O.s used for correlation:     2    30
 NBasis=    30 NAE=     5 NBE=     5 NFC=     1 NFV=     0
 NROrb=     29 NOA=     4 NOB=     4 NVA=    25 NVB=    25
 Fully direct method using O(ONN) memory.
 JobTyp=1 Pass  1:  I=   2 to   5 NPSUse=  1 ParTrn=F ParDer=F DoDerP=T.
 Spin components of T(2) and E(2):
     alpha-alpha T2 =       0.6076856350D-02 E2=     -0.2125376822D-01
     alpha-beta  T2 =       0.4011754637D-01 E2=     -0.1441535270D+00
     beta-beta   T2 =       0.6076856350D-02 E2=     -0.2125376822D-01
 ANorm=    0.1025802739D+01
 E2 =    -0.1866610635D+00 EUMP2 =    -0.56373231916591D+02
          IDoAtm=1111
          Differentiating once with respect to electric field.
                with respect to dipole field.
          Differentiating once with respect to nuclear coordinates.
          Keep R1 ints in memory in canonical form, NReq=929148.
          There are     1 degrees of freedom in the 1st order CPHF.  IDoFFX=0.
 LinEq1:  Iter=  0 NonCon=     1 RMS=3.55D-03 Max=1.70D-02
 AX will form     1 AO Fock derivatives at one time.
 LinEq1:  Iter=  1 NonCon=     1 RMS=9.81D-04 Max=7.33D-03
 LinEq1:  Iter=  2 NonCon=     1 RMS=1.77D-04 Max=9.40D-04
 LinEq1:  Iter=  3 NonCon=     1 RMS=2.17D-05 Max=1.03D-04
 LinEq1:  Iter=  4 NonCon=     1 RMS=1.13D-06 Max=6.41D-06
 LinEq1:  Iter=  5 NonCon=     1 RMS=9.44D-08 Max=6.71D-07
 LinEq1:  Iter=  6 NonCon=     1 RMS=4.89D-09 Max=2.35D-08
 LinEq1:  Iter=  7 NonCon=     1 RMS=3.64D-10 Max=2.16D-09
 LinEq1:  Iter=  8 NonCon=     0 RMS=2.47D-11 Max=1.26D-10
 Linear equations converged to 1.000D-10 1.000D-09 after     8 iterations.
 End of Minotr Frequency-dependent properties file   721 does not exist.
 End of Minotr Frequency-dependent properties file   722 does not exist.
 Calling FoFJK, ICntrl=      2127 FMM=F ISym2X=1 I1Cent= 0 IOpClX= 0 NMat=1 NMatS=1 NMatT=0.
 ***** Axes restored to original set *****
 -------------------------------------------------------------------
 Center     Atomic                   Forces (Hartrees/Bohr)
 Number     Number              X              Y              Z
 -------------------------------------------------------------------
      1        7           0.000000000    0.000000000    0.000000000
      2        1          -0.000000297    0.000000000    0.000000000
      3        1           0.000000148   -0.000000257    0.000000000
      4        1           0.000000148    0.000000257    0.000000000
 -------------------------------------------------------------------
 Cartesian Forces:  Max     0.000000297 RMS     0.000000148
 -----------------------------------------------------------------------------------------------
                       Internal Coordinate Forces (Hartree/Bohr or radian)
  Cent   Atom   N1       Length/X         N2         Alpha/Y        N3         Beta/Z          J
 -----------------------------------------------------------------------------------------------
         X 
      1  N        1   0.000000(     1)
      2  H        2   0.000000(     2)      1   0.000000(     5)
      3  H        2   0.000000(     3)      1   0.000000(     6)      3   0.000000(     8)     0
      4  H        2   0.000000(     4)      1   0.000000(     7)      4   0.000000(     9)     0
 -----------------------------------------------------------------------------------------------
 Internal  Forces:  Max     0.000000297 RMS     0.000000171

 GradGradGradGradGradGradGradGradGradGradGradGradGradGradGradGradGradGrad
 Berny optimization.
 Search for a local minimum.
 Step number   3 out of a maximum of   20
 All quantities printed in internal units (Hartrees-Bohrs-Radians)
 Update second derivatives using D2CorN and points    2    3
 DE= -5.85D-06 DEPred=-6.11D-06 R= 9.59D-01
 SS=  1.41D+00  RLast= 4.67D-03 DXNew= 5.0454D-01 1.4005D-02
 Trust test= 9.59D-01 RLast= 4.67D-03 DXMaxT set to 3.00D-01
 The second derivative matrix:
                         nxx2       hn3       hn4      dih4       hn5
           nxx2         0.00000
           hn3          0.00000   0.48814
           hn4          0.00000   0.02505   0.48814
           dih4         0.00000   0.00000   0.00000   0.32000
           hn5          0.00000   0.02505   0.02505   0.00000   0.48814
           dih5         0.00000   0.00000   0.00000   0.16000   0.00000
           hnxx3        0.00000   0.00000   0.00000   0.00000   0.00000
           hnxx4        0.00000   0.00000   0.00000   0.00000   0.00000
           hnxx5        0.00000   0.00000   0.00000   0.00000   0.00000
                         dih5      hnxx3     hnxx4     hnxx5
           dih5         0.32000
           hnxx3        0.00000   0.04500
           hnxx4        0.00000   0.04500   0.04500
           hnxx5        0.00000   0.04500   0.04500   0.04500
 ITU=  1  1  0
     Eigenvalues ---    0.00000   0.16000   0.46309   0.46309   0.48000
     Eigenvalues ---    0.538251000.000001000.000001000.00000
 RFO step:  Lambda=-5.96046453D-09 EMin=-5.56921827D-17
 Quartic linear search produced a step of -0.00021.
 Variable       Old X    -DE/DX   Delta X   Delta X   Delta X     New X
                                 (Linear)    (Quad)   (Total)
   nxx2       1.81489   0.00000   0.00000   0.00000   0.00000   1.81489
   hn3        1.87949   0.00000   0.00000   0.00000   0.00000   1.87949
   hn4        1.87949   0.00000   0.00000   0.00000   0.00000   1.87949
   dih4       2.09440   0.00000   0.00000   0.00000   0.00000   2.09440
   hn5        1.87949   0.00000   0.00000   0.00000   0.00000   1.87949
   dih5       2.09440   0.00000   0.00000   0.00000   0.00000   2.09440
  hnxx3       1.57080   0.00000   0.00000   0.00000   0.00000   1.57080
  hnxx4       1.57080   0.00000   0.00000   0.00000   0.00000   1.57080
  hnxx5       1.57080   0.00000   0.00000   0.00000   0.00000   1.57080
         Item               Value     Threshold  Converged?
 Maximum Force            0.000000     0.000450     YES
 RMS     Force            0.000000     0.000300     YES
 Maximum Displacement     0.000001     0.001800     YES
 RMS     Displacement     0.000000     0.001200     YES
 Predicted change in Energy=-2.456142D-13
 Optimization completed.
    -- Stationary point found.
                       ----------------------------
                       !   Optimized Parameters   !
                       ! (Angstroms and Degrees)  !
 ----------------------                            ----------------------
 !      Name          Value   Derivative information (Atomic Units)     !
 ------------------------------------------------------------------------
 !      nxx2         0.9604   -DE/DX =    0.0                           !
 !       hn3         0.9946   -DE/DX =    0.0                           !
 !       hn4         0.9946   -DE/DX =    0.0                           !
 !      dih4       120.0      -DE/DX =    0.0                           !
 !       hn5         0.9946   -DE/DX =    0.0                           !
 !      dih5       120.0      -DE/DX =    0.0                           !
 !      hnxx3       90.0      -DE/DX =    0.0                           !
 !      hnxx4       90.0      -DE/DX =    0.0                           !
 !      hnxx5       90.0      -DE/DX =    0.0                           !
 ------------------------------------------------------------------------
 GradGradGradGradGradGradGradGradGradGradGradGradGradGradGradGradGradGrad

 ---------------------------------------------------------------------------------------------------
                            Z-MATRIX (ANGSTROMS AND DEGREES)
   CD    Cent   Atom    N1       Length/X        N2       Alpha/Y        N3        Beta/Z          J
 ---------------------------------------------------------------------------------------------------
      1         X 
      2      1  N        1   0.960400(     1)
      3      2  H        2   0.994581(     2)      1   90.000(     5)
      4      3  H        2   0.994581(     3)      1   90.000(     6)      3  120.000(     8)      0
      5      4  H        2   0.994581(     4)      1   90.000(     7)      4  120.000(     9)      0
 ---------------------------------------------------------------------------------------------------
                         Z-Matrix orientation:                         
 ---------------------------------------------------------------------
 Center     Atomic      Atomic             Coordinates (Angstroms)
 Number     Number       Type             X           Y           Z
 ---------------------------------------------------------------------
      1         -1           0        0.000000    0.000000    0.000000
      2          7           0        0.000000    0.000000    0.960400
      3          1           0        0.994581    0.000000    0.960400
      4          1           0       -0.497291    0.861332    0.960400
      5          1           0       -0.497291   -0.861332    0.960400
 ---------------------------------------------------------------------
                    Distance matrix (angstroms):
                    1          2          3          4          5
     1  X    0.000000
     2  N    0.960400   0.000000
     3  H    1.382592   0.994581   0.000000
     4  H    1.382592   0.994581   1.722665   0.000000
     5  H    1.382592   0.994581   1.722665   1.722665   0.000000
 Stoichiometry    H3N
 Framework group  D3H[O(N),3C2(H)]
 Deg. of freedom     1
 Full point group                 D3H     NOp  12
 Largest Abelian subgroup         C2V     NOp   4
 Largest concise Abelian subgroup C2      NOp   2
                         Standard orientation:                         
 ---------------------------------------------------------------------
 Center     Atomic      Atomic             Coordinates (Angstroms)
 Number     Number       Type             X           Y           Z
 ---------------------------------------------------------------------
      1          7           0        0.000000    0.000000    0.000000
      2          1           0        0.000000    0.994581    0.000000
      3          1           0        0.861332   -0.497291    0.000000
      4          1           0       -0.861332   -0.497291    0.000000
 ---------------------------------------------------------------------
 Rotational constants (GHZ):    337.9562070    337.9562070    168.9781035

 **********************************************************************

            Population analysis using the SCF density.

 **********************************************************************

 Orbital symmetries:
       Occupied  (A1') (A1') (E') (E') (A2")
       Virtual   (A1') (E') (E') (E') (E') (A2") (A1') (E') (E')
                 (A1') (E") (E") (A2') (E') (E') (A1') (A2") (E")
                 (E") (E') (E') (A1') (E') (E') (A1')
 The electronic state is 1-A1'.
 Alpha  occ. eigenvalues --  -15.51729  -1.11429  -0.63946  -0.63946  -0.37990
 Alpha virt. eigenvalues --    0.23089   0.33109   0.33109   0.93071   0.93071
 Alpha virt. eigenvalues --    0.97224   1.02669   1.18217   1.18217   1.31446
 Alpha virt. eigenvalues --    1.75925   1.75925   2.33896   2.40485   2.40485
 Alpha virt. eigenvalues --    2.46523   2.68799   3.03132   3.03132   3.23291
 Alpha virt. eigenvalues --    3.23291   3.72321   3.90096   3.90096   4.44035
          Condensed to atoms (all electrons):
              1          2          3          4
     1  N    6.740081   0.374292   0.374292   0.374292
     2  H    0.374292   0.387399  -0.024672  -0.024672
     3  H    0.374292  -0.024672   0.387399  -0.024672
     4  H    0.374292  -0.024672  -0.024672   0.387399
 Mulliken atomic charges:
              1
     1  N   -0.862957
     2  H    0.287652
     3  H    0.287652
     4  H    0.287652
 Sum of Mulliken atomic charges =   0.00000
 Mulliken charges with hydrogens summed into heavy atoms:
              1
     1  N    0.000000
 Sum of Mulliken charges with hydrogens summed into heavy atoms =   0.00000
 Electronic spatial extent (au):  <R**2>=             25.5663
 Charge=              0.0000 electrons
 Dipole moment (field-independent basis, Debye):
    X=              0.0000    Y=              0.0000    Z=              0.0000  Tot=              0.0000
 Quadrupole moment (field-independent basis, Debye-Ang):
   XX=             -5.4328   YY=             -5.4328   ZZ=             -9.2681
   XY=              0.0000   XZ=              0.0000   YZ=              0.0000
 Traceless Quadrupole moment (field-independent basis, Debye-Ang):
   XX=              1.2784   YY=              1.2784   ZZ=             -2.5568
   XY=              0.0000   XZ=              0.0000   YZ=              0.0000
 Octapole moment (field-independent basis, Debye-Ang**2):
  XXX=              0.0000  YYY=              1.2613  ZZZ=              0.0000  XYY=              0.0000
  XXY=             -1.2613  XXZ=              0.0000  XZZ=              0.0000  YZZ=              0.0000
  YYZ=              0.0000  XYZ=              0.0000
 Hexadecapole moment (field-independent basis, Debye-Ang**3):
 XXXX=             -8.4044 YYYY=             -8.4044 ZZZZ=             -8.6828 XXXY=              0.0000
 XXXZ=              0.0000 YYYX=              0.0000 YYYZ=              0.0000 ZZZX=              0.0000
 ZZZY=              0.0000 XXYY=             -2.8015 XXZZ=             -3.2656 YYZZ=             -3.2656
 XXYZ=              0.0000 YYXZ=              0.0000 ZZXY=              0.0000
 N-N= 1.209482435570D+01 E-N=-1.560242614793D+02  KE= 5.604225326475D+01
 Symmetry A1   KE= 5.035664676575D+01
 Symmetry A2   KE= 4.784968383407D-33
 Symmetry B1   KE= 2.590480480518D+00
 Symmetry B2   KE= 3.095126018482D+00
 1\1\GINC-NISER-THINKCENTRE-M93P\POpt\RMP2-FC\6-31G(d,p)\H3N1\STUDENT\0
 4-Mar-2021\1\\# mp2/6-31g** opt=z-matrix\\si\\0,1\X\N,1,nxx2\H,2,hn3,1
 ,hnxx3\H,2,hn4,1,hnxx4,3,dih4,0\H,2,hn5,1,hnxx5,4,dih5,0\\nxx2=0.9604\
 hn3=0.99458106\hn4=0.99458106\dih4=120.\hn5=0.99458106\dih5=120.\hnxx3
 =90.\hnxx4=90.\hnxx5=90.\\Version=EM64L-G09RevC.01\State=1-A1'\HF=-56.
 1865709\MP2=-56.3732319\RMSD=7.133e-10\RMSF=1.484e-07\Dipole=0.,0.,0.\
 PG=D03H [O(N1),3C2(H1)]\\@


 SI MONUMENTUM REQUIRIS, CIRCUMSPICE
     -- FROM SIR CHRISTOPHER WREN'S TOMBSTONE
 Job cpu time:  0 days  0 hours  0 minutes  3.0 seconds.
 File lengths (MBytes):  RWF=      5 Int=      0 D2E=      0 Chk=      1 Scr=      1
 Normal termination of Gaussian 09 at Thu Mar  4 15:43:41 2021.
